(H2O)6                                                                  
Freq      RMP2-FC                                                     CC-pVDZ             
Number of atoms                            I               18
Info1-9                                    I   N=           9
          27          27        1002           0           0         100
           6           2           1
Charge                                     I                0
Multiplicity                               I                1
Number of electrons                        I               60
Number of alpha electrons                  I               30
Number of beta electrons                   I               30
Number of basis functions                  I              144
Number of independent functions            I              144
Number of point charges in /Mol/           I                0
Number of translation vectors              I                0
Atomic numbers                             I   N=          18
           8           1           1           8           1           1
           8           1           1           8           1           1
           8           1           1           8           1           1
Nuclear charges                            R   N=          18
  8.00000000E+00  1.00000000E+00  1.00000000E+00  8.00000000E+00  1.00000000E+00
  1.00000000E+00  8.00000000E+00  1.00000000E+00  1.00000000E+00  8.00000000E+00
  1.00000000E+00  1.00000000E+00  8.00000000E+00  1.00000000E+00  1.00000000E+00
  8.00000000E+00  1.00000000E+00  1.00000000E+00
Current cartesian coordinates              R   N=          54
  2.70054343E+00 -1.83720051E+00 -2.34880413E+00  8.99968168E-01 -2.03302530E+00
 -2.69627508E+00  2.80528808E+00 -2.36700199E+00 -5.76148127E-01 -2.66500896E+00
 -1.72632701E+00 -2.51773470E+00 -3.77079368E+00 -2.94862039E+00 -3.30047721E+00
 -2.97702914E+00 -1.92251795E+00 -7.02480616E-01 -2.74103589E+00 -8.30137227E-01
  2.57744372E+00 -2.69395240E+00  9.01918471E-01  1.83835991E+00 -4.04459265E+00
 -7.47818307E-01  3.85257169E+00  2.55602961E+00 -1.68801268E+00  2.91670718E+00
  3.00867373E+00  5.91571833E-02  2.58309490E+00  7.33300962E-01 -1.55131713E+00
  3.14890502E+00 -2.35917508E+00  3.29012413E+00 -2.52092867E-01 -5.11673774E-01
  3.46310803E+00 -3.36680547E-01 -2.70883961E+00  2.25175301E+00 -1.72469648E+00
  2.79226483E+00  2.77319309E+00 -3.37069169E-01  4.09652347E+00  3.84349985E+00
 -1.03230437E+00  2.89418334E+00  1.19774622E+00 -1.36146929E+00
Force Field                                I                0
Int Atom Types                             I   N=          18
           0           0           0           0           0           0
           0           0           0           0           0           0
           0           0           0           0           0           0
MM charges                                 R   N=          18
  0.00000000E+00  0.00000000E+00  0.00000000E+00  0.00000000E+00  0.00000000E+00
  0.00000000E+00  0.00000000E+00  0.00000000E+00  0.00000000E+00  0.00000000E+00
  0.00000000E+00  0.00000000E+00  0.00000000E+00  0.00000000E+00  0.00000000E+00
  0.00000000E+00  0.00000000E+00  0.00000000E+00
Integer atomic weights                     I   N=          18
          16           1           1          16           1           1
          16           1           1          16           1           1
          16           1           1          16           1           1
Real atomic weights                        R   N=          18
  1.59949146E+01  1.00782504E+00  1.00782504E+00  1.59949146E+01  1.00782504E+00
  1.00782504E+00  1.59949146E+01  1.00782504E+00  1.00782504E+00  1.59949146E+01
  1.00782504E+00  1.00782504E+00  1.59949146E+01  1.00782504E+00  1.00782504E+00
  1.59949146E+01  1.00782504E+00  1.00782504E+00
Atom fragment info                         I   N=          18
           0           0           0           0           0           0
           0           0           0           0           0           0
           0           0           0           0           0           0
Atom residue num                           I   N=          18
           0           0           0           0           0           0
           0           0           0           0           0           0
           0           0           0           0           0           0
Nuclear spins                              I   N=          18
           0           1           1           0           1           1
           0           1           1           0           1           1
           0           1           1           0           1           1
Nuclear ZEff                               R   N=          18
 -5.60000000E+00 -1.00000000E+00 -1.00000000E+00 -5.60000000E+00 -1.00000000E+00
 -1.00000000E+00 -5.60000000E+00 -1.00000000E+00 -1.00000000E+00 -5.60000000E+00
 -1.00000000E+00 -1.00000000E+00 -5.60000000E+00 -1.00000000E+00 -1.00000000E+00
 -5.60000000E+00 -1.00000000E+00 -1.00000000E+00
Nuclear QMom                               R   N=          18
  0.00000000E+00  0.00000000E+00  0.00000000E+00  0.00000000E+00  0.00000000E+00
  0.00000000E+00  0.00000000E+00  0.00000000E+00  0.00000000E+00  0.00000000E+00
  0.00000000E+00  0.00000000E+00  0.00000000E+00  0.00000000E+00  0.00000000E+00
  0.00000000E+00  0.00000000E+00  0.00000000E+00
Nuclear GFac                               R   N=          18
  0.00000000E+00  2.79284600E+00  2.79284600E+00  0.00000000E+00  2.79284600E+00
  2.79284600E+00  0.00000000E+00  2.79284600E+00  2.79284600E+00  0.00000000E+00
  2.79284600E+00  2.79284600E+00  0.00000000E+00  2.79284600E+00  2.79284600E+00
  0.00000000E+00  2.79284600E+00  2.79284600E+00
MicOpt                                     I   N=          18
          -1          -1          -1          -1          -1          -1
          -1          -1          -1          -1          -1          -1
          -1          -1          -1          -1          -1          -1
Number of contracted shells                I               72
Number of primitive shells                 I              180
Pure/Cartesian d shells                    I                0
Pure/Cartesian f shells                    I                0
Highest angular momentum                   I                2
Largest degree of contraction              I                7
Shell types                                I   N=          72
           0           0           0           1           1          -2
           0           0           1           0           0           1
           0           0           0           1           1          -2
           0           0           1           0           0           1
           0           0           0           1           1          -2
           0           0           1           0           0           1
           0           0           0           1           1          -2
           0           0           1           0           0           1
           0           0           0           1           1          -2
           0           0           1           0           0           1
           0           0           0           1           1          -2
           0           0           1           0           0           1
Number of primitives per shell             I   N=          72
           7           7           1           3           1           1
           3           1           1           3           1           1
           7           7           1           3           1           1
           3           1           1           3           1           1
           7           7           1           3           1           1
           3           1           1           3           1           1
           7           7           1           3           1           1
           3           1           1           3           1           1
           7           7           1           3           1           1
           3           1           1           3           1           1
           7           7           1           3           1           1
           3           1           1           3           1           1
Shell to atom map                          I   N=          72
           1           1           1           1           1           1
           2           2           2           3           3           3
           4           4           4           4           4           4
           5           5           5           6           6           6
           7           7           7           7           7           7
           8           8           8           9           9           9
          10          10          10          10          10          10
          11          11          11          12          12          12
          13          13          13          13          13          13
          14          14          14          15          15          15
          16          16          16          16          16          16
          17          17          17          18          18          18
Primitive exponents                        R   N=         180
  1.17200000E+04  1.75900000E+03  4.00800000E+02  1.13700000E+02  3.70300000E+01
  1.32700000E+01  5.02500000E+00  1.17200000E+04  4.00800000E+02  1.13700000E+02
  3.70300000E+01  1.32700000E+01  5.02500000E+00  1.01300000E+00  3.02300000E-01
  1.77000000E+01  3.85400000E+00  1.04600000E+00  2.75300000E-01  1.18500000E+00
  1.30100000E+01  1.96200000E+00  4.44600000E-01  1.22000000E-01  7.27000000E-01
  1.30100000E+01  1.96200000E+00  4.44600000E-01  1.22000000E-01  7.27000000E-01
  1.17200000E+04  1.75900000E+03  4.00800000E+02  1.13700000E+02  3.70300000E+01
  1.32700000E+01  5.02500000E+00  1.17200000E+04  4.00800000E+02  1.13700000E+02
  3.70300000E+01  1.32700000E+01  5.02500000E+00  1.01300000E+00  3.02300000E-01
  1.77000000E+01  3.85400000E+00  1.04600000E+00  2.75300000E-01  1.18500000E+00
  1.30100000E+01  1.96200000E+00  4.44600000E-01  1.22000000E-01  7.27000000E-01
  1.30100000E+01  1.96200000E+00  4.44600000E-01  1.22000000E-01  7.27000000E-01
  1.17200000E+04  1.75900000E+03  4.00800000E+02  1.13700000E+02  3.70300000E+01
  1.32700000E+01  5.02500000E+00  1.17200000E+04  4.00800000E+02  1.13700000E+02
  3.70300000E+01  1.32700000E+01  5.02500000E+00  1.01300000E+00  3.02300000E-01
  1.77000000E+01  3.85400000E+00  1.04600000E+00  2.75300000E-01  1.18500000E+00
  1.30100000E+01  1.96200000E+00  4.44600000E-01  1.22000000E-01  7.27000000E-01
  1.30100000E+01  1.96200000E+00  4.44600000E-01  1.22000000E-01  7.27000000E-01
  1.17200000E+04  1.75900000E+03  4.00800000E+02  1.13700000E+02  3.70300000E+01
  1.32700000E+01  5.02500000E+00  1.17200000E+04  4.00800000E+02  1.13700000E+02
  3.70300000E+01  1.32700000E+01  5.02500000E+00  1.01300000E+00  3.02300000E-01
  1.77000000E+01  3.85400000E+00  1.04600000E+00  2.75300000E-01  1.18500000E+00
  1.30100000E+01  1.96200000E+00  4.44600000E-01  1.22000000E-01  7.27000000E-01
  1.30100000E+01  1.96200000E+00  4.44600000E-01  1.22000000E-01  7.27000000E-01
  1.17200000E+04  1.75900000E+03  4.00800000E+02  1.13700000E+02  3.70300000E+01
  1.32700000E+01  5.02500000E+00  1.17200000E+04  4.00800000E+02  1.13700000E+02
  3.70300000E+01  1.32700000E+01  5.02500000E+00  1.01300000E+00  3.02300000E-01
  1.77000000E+01  3.85400000E+00  1.04600000E+00  2.75300000E-01  1.18500000E+00
  1.30100000E+01  1.96200000E+00  4.44600000E-01  1.22000000E-01  7.27000000E-01
  1.30100000E+01  1.96200000E+00  4.44600000E-01  1.22000000E-01  7.27000000E-01
  1.17200000E+04  1.75900000E+03  4.00800000E+02  1.13700000E+02  3.70300000E+01
  1.32700000E+01  5.02500000E+00  1.17200000E+04  4.00800000E+02  1.13700000E+02
  3.70300000E+01  1.32700000E+01  5.02500000E+00  1.01300000E+00  3.02300000E-01
  1.77000000E+01  3.85400000E+00  1.04600000E+00  2.75300000E-01  1.18500000E+00
  1.30100000E+01  1.96200000E+00  4.44600000E-01  1.22000000E-01  7.27000000E-01
  1.30100000E+01  1.96200000E+00  4.44600000E-01  1.22000000E-01  7.27000000E-01
Contraction coefficients                   R   N=         180
  7.11864434E-04  5.48520199E-03  2.79099296E-02  1.05133208E-01  2.84002490E-01
  4.51673946E-01  2.73208126E-01  7.69030046E-06  3.13484579E-04 -2.96614853E-03
 -1.08753543E-02 -1.20753817E-01 -1.06275264E-01  1.09597548E+00  1.00000000E+00
  6.26791663E-02  3.33536566E-01  7.41239642E-01  1.00000000E+00  1.00000000E+00
  3.34987264E-02  2.34800801E-01  8.13682958E-01  1.00000000E+00  1.00000000E+00
  3.34987264E-02  2.34800801E-01  8.13682958E-01  1.00000000E+00  1.00000000E+00
  7.11864434E-04  5.48520199E-03  2.79099296E-02  1.05133208E-01  2.84002490E-01
  4.51673946E-01  2.73208126E-01  7.69030046E-06  3.13484579E-04 -2.96614853E-03
 -1.08753543E-02 -1.20753817E-01 -1.06275264E-01  1.09597548E+00  1.00000000E+00
  6.26791663E-02  3.33536566E-01  7.41239642E-01  1.00000000E+00  1.00000000E+00
  3.34987264E-02  2.34800801E-01  8.13682958E-01  1.00000000E+00  1.00000000E+00
  3.34987264E-02  2.34800801E-01  8.13682958E-01  1.00000000E+00  1.00000000E+00
  7.11864434E-04  5.48520199E-03  2.79099296E-02  1.05133208E-01  2.84002490E-01
  4.51673946E-01  2.73208126E-01  7.69030046E-06  3.13484579E-04 -2.96614853E-03
 -1.08753543E-02 -1.20753817E-01 -1.06275264E-01  1.09597548E+00  1.00000000E+00
  6.26791663E-02  3.33536566E-01  7.41239642E-01  1.00000000E+00  1.00000000E+00
  3.34987264E-02  2.34800801E-01  8.13682958E-01  1.00000000E+00  1.00000000E+00
  3.34987264E-02  2.34800801E-01  8.13682958E-01  1.00000000E+00  1.00000000E+00
  7.11864434E-04  5.48520199E-03  2.79099296E-02  1.05133208E-01  2.84002490E-01
  4.51673946E-01  2.73208126E-01  7.69030046E-06  3.13484579E-04 -2.96614853E-03
 -1.08753543E-02 -1.20753817E-01 -1.06275264E-01  1.09597548E+00  1.00000000E+00
  6.26791663E-02  3.33536566E-01  7.41239642E-01  1.00000000E+00  1.00000000E+00
  3.34987264E-02  2.34800801E-01  8.13682958E-01  1.00000000E+00  1.00000000E+00
  3.34987264E-02  2.34800801E-01  8.13682958E-01  1.00000000E+00  1.00000000E+00
  7.11864434E-04  5.48520199E-03  2.79099296E-02  1.05133208E-01  2.84002490E-01
  4.51673946E-01  2.73208126E-01  7.69030046E-06  3.13484579E-04 -2.96614853E-03
 -1.08753543E-02 -1.20753817E-01 -1.06275264E-01  1.09597548E+00  1.00000000E+00
  6.26791663E-02  3.33536566E-01  7.41239642E-01  1.00000000E+00  1.00000000E+00
  3.34987264E-02  2.34800801E-01  8.13682958E-01  1.00000000E+00  1.00000000E+00
  3.34987264E-02  2.34800801E-01  8.13682958E-01  1.00000000E+00  1.00000000E+00
  7.11864434E-04  5.48520199E-03  2.79099296E-02  1.05133208E-01  2.84002490E-01
  4.51673946E-01  2.73208126E-01  7.69030046E-06  3.13484579E-04 -2.96614853E-03
 -1.08753543E-02 -1.20753817E-01 -1.06275264E-01  1.09597548E+00  1.00000000E+00
  6.26791663E-02  3.33536566E-01  7.41239642E-01  1.00000000E+00  1.00000000E+00
  3.34987264E-02  2.34800801E-01  8.13682958E-01  1.00000000E+00  1.00000000E+00
  3.34987264E-02  2.34800801E-01  8.13682958E-01  1.00000000E+00  1.00000000E+00
Coordinates of each shell                  R   N=         216
  2.70054343E+00 -1.83720051E+00 -2.34880413E+00  2.70054343E+00 -1.83720051E+00
 -2.34880413E+00  2.70054343E+00 -1.83720051E+00 -2.34880413E+00  2.70054343E+00
 -1.83720051E+00 -2.34880413E+00  2.70054343E+00 -1.83720051E+00 -2.34880413E+00
  2.70054343E+00 -1.83720051E+00 -2.34880413E+00  8.99968168E-01 -2.03302530E+00
 -2.69627508E+00  8.99968168E-01 -2.03302530E+00 -2.69627508E+00  8.99968168E-01
 -2.03302530E+00 -2.69627508E+00  2.80528808E+00 -2.36700199E+00 -5.76148127E-01
  2.80528808E+00 -2.36700199E+00 -5.76148127E-01  2.80528808E+00 -2.36700199E+00
 -5.76148127E-01 -2.66500896E+00 -1.72632701E+00 -2.51773470E+00 -2.66500896E+00
 -1.72632701E+00 -2.51773470E+00 -2.66500896E+00 -1.72632701E+00 -2.51773470E+00
 -2.66500896E+00 -1.72632701E+00 -2.51773470E+00 -2.66500896E+00 -1.72632701E+00
 -2.51773470E+00 -2.66500896E+00 -1.72632701E+00 -2.51773470E+00 -3.77079368E+00
 -2.94862039E+00 -3.30047721E+00 -3.77079368E+00 -2.94862039E+00 -3.30047721E+00
 -3.77079368E+00 -2.94862039E+00 -3.30047721E+00 -2.97702914E+00 -1.92251795E+00
 -7.02480616E-01 -2.97702914E+00 -1.92251795E+00 -7.02480616E-01 -2.97702914E+00
 -1.92251795E+00 -7.02480616E-01 -2.74103589E+00 -8.30137227E-01  2.57744372E+00
 -2.74103589E+00 -8.30137227E-01  2.57744372E+00 -2.74103589E+00 -8.30137227E-01
  2.57744372E+00 -2.74103589E+00 -8.30137227E-01  2.57744372E+00 -2.74103589E+00
 -8.30137227E-01  2.57744372E+00 -2.74103589E+00 -8.30137227E-01  2.57744372E+00
 -2.69395240E+00  9.01918471E-01  1.83835991E+00 -2.69395240E+00  9.01918471E-01
  1.83835991E+00 -2.69395240E+00  9.01918471E-01  1.83835991E+00 -4.04459265E+00
 -7.47818307E-01  3.85257169E+00 -4.04459265E+00 -7.47818307E-01  3.85257169E+00
 -4.04459265E+00 -7.47818307E-01  3.85257169E+00  2.55602961E+00 -1.68801268E+00
  2.91670718E+00  2.55602961E+00 -1.68801268E+00  2.91670718E+00  2.55602961E+00
 -1.68801268E+00  2.91670718E+00  2.55602961E+00 -1.68801268E+00  2.91670718E+00
  2.55602961E+00 -1.68801268E+00  2.91670718E+00  2.55602961E+00 -1.68801268E+00
  2.91670718E+00  3.00867373E+00  5.91571833E-02  2.58309490E+00  3.00867373E+00
  5.91571833E-02  2.58309490E+00  3.00867373E+00  5.91571833E-02  2.58309490E+00
  7.33300962E-01 -1.55131713E+00  3.14890502E+00  7.33300962E-01 -1.55131713E+00
  3.14890502E+00  7.33300962E-01 -1.55131713E+00  3.14890502E+00 -2.35917508E+00
  3.29012413E+00 -2.52092867E-01 -2.35917508E+00  3.29012413E+00 -2.52092867E-01
 -2.35917508E+00  3.29012413E+00 -2.52092867E-01 -2.35917508E+00  3.29012413E+00
 -2.52092867E-01 -2.35917508E+00  3.29012413E+00 -2.52092867E-01 -2.35917508E+00
  3.29012413E+00 -2.52092867E-01 -5.11673774E-01  3.46310803E+00 -3.36680547E-01
 -5.11673774E-01  3.46310803E+00 -3.36680547E-01 -5.11673774E-01  3.46310803E+00
 -3.36680547E-01 -2.70883961E+00  2.25175301E+00 -1.72469648E+00 -2.70883961E+00
  2.25175301E+00 -1.72469648E+00 -2.70883961E+00  2.25175301E+00 -1.72469648E+00
  2.79226483E+00  2.77319309E+00 -3.37069169E-01  2.79226483E+00  2.77319309E+00
 -3.37069169E-01  2.79226483E+00  2.77319309E+00 -3.37069169E-01  2.79226483E+00
  2.77319309E+00 -3.37069169E-01  2.79226483E+00  2.77319309E+00 -3.37069169E-01
  2.79226483E+00  2.77319309E+00 -3.37069169E-01  4.09652347E+00  3.84349985E+00
 -1.03230437E+00  4.09652347E+00  3.84349985E+00 -1.03230437E+00  4.09652347E+00
  3.84349985E+00 -1.03230437E+00  2.89418334E+00  1.19774622E+00 -1.36146929E+00
  2.89418334E+00  1.19774622E+00 -1.36146929E+00  2.89418334E+00  1.19774622E+00
 -1.36146929E+00
Constraint Structure                       R   N=          54
  2.70054343E+00 -1.83720051E+00 -2.34880413E+00  8.99968168E-01 -2.03302530E+00
 -2.69627508E+00  2.80528808E+00 -2.36700199E+00 -5.76148127E-01 -2.66500896E+00
 -1.72632701E+00 -2.51773470E+00 -3.77079368E+00 -2.94862039E+00 -3.30047721E+00
 -2.97702914E+00 -1.92251795E+00 -7.02480616E-01 -2.74103589E+00 -8.30137227E-01
  2.57744372E+00 -2.69395240E+00  9.01918471E-01  1.83835991E+00 -4.04459265E+00
 -7.47818307E-01  3.85257169E+00  2.55602961E+00 -1.68801268E+00  2.91670718E+00
  3.00867373E+00  5.91571833E-02  2.58309490E+00  7.33300962E-01 -1.55131713E+00
  3.14890502E+00 -2.35917508E+00  3.29012413E+00 -2.52092867E-01 -5.11673774E-01
  3.46310803E+00 -3.36680547E-01 -2.70883961E+00  2.25175301E+00 -1.72469648E+00
  2.79226483E+00  2.77319309E+00 -3.37069169E-01  4.09652347E+00  3.84349985E+00
 -1.03230437E+00  2.89418334E+00  1.19774622E+00 -1.36146929E+00
Num ILSW                                   I              100
ILSW                                       I   N=         100
           0           0           0           1           2           0
           0           0           0           0           0          -1
           0           0           0           0           0           0
           0           0           0           0           1           0
           1           0           0           0           0           0
           0           0      100000           0          -1           0
           0           0           0           0           0           0
           0           0           0           1           1           0
           0           0           1           0           0           0
           0           0           4          40           0           0
           0           0           0           0           0           0
           0           0           0           0           0           0
           0           0           0           0           0           0
           0           0           0           0           0           0
           0           0           0           0           0           0
           0           0           0           0           0           0
           0           0           0           0
Num RLSW                                   I               40
RLSW                                       R   N=          40
  1.00000000E+00  1.00000000E+00  1.00000000E+00  1.00000000E+00  1.00000000E+00
  0.00000000E+00  0.00000000E+00  1.00000000E+00  0.00000000E+00  0.00000000E+00
  0.00000000E+00  0.00000000E+00  1.00000000E+00  0.00000000E+00  0.00000000E+00
  0.00000000E+00  0.00000000E+00  1.00000000E+00  0.00000000E+00  0.00000000E+00
  0.00000000E+00  0.00000000E+00  1.00000000E+00  0.00000000E+00  0.00000000E+00
  0.00000000E+00  0.00000000E+00  1.00000000E+00  0.00000000E+00  0.00000000E+00
  0.00000000E+00  0.00000000E+00  1.00000000E+00  0.00000000E+00  0.00000000E+00
  0.00000000E+00  0.00000000E+00  0.00000000E+00  1.00000000E+00  1.00000000E+00
MxBond                                     I                2
NBond                                      I   N=          18
           2           1           1           2           1           1
           2           1           1           2           1           1
           2           1           1           2           1           1
IBond                                      I   N=          36
           2           3           1           0           1           0
           5           6           4           0           4           0
           8           9           7           0           7           0
          11          12          10           0          10           0
          14          15          13           0          13           0
          17          18          16           0          16           0
RBond                                      R   N=          36
  1.00000000E+00  1.00000000E+00  1.00000000E+00  0.00000000E+00  1.00000000E+00
  0.00000000E+00  1.00000000E+00  1.00000000E+00  1.00000000E+00  0.00000000E+00
  1.00000000E+00  0.00000000E+00  1.00000000E+00  1.00000000E+00  1.00000000E+00
  0.00000000E+00  1.00000000E+00  0.00000000E+00  1.00000000E+00  1.00000000E+00
  1.00000000E+00  0.00000000E+00  1.00000000E+00  0.00000000E+00  1.00000000E+00
  1.00000000E+00  1.00000000E+00  0.00000000E+00  1.00000000E+00  0.00000000E+00
  1.00000000E+00  1.00000000E+00  1.00000000E+00  0.00000000E+00  1.00000000E+00
  0.00000000E+00
Virial Ratio                               R      2.001112834710798E+00
SCF Energy                                 R     -4.562296353468650E+02
MP2 Energy                                 R     -4.574825140924322E+02
Total Energy                               R     -4.574825140924322E+02
Post-SCF wavefunction norm                 R      1.623179088243688E+00
RMS Force                                  R      1.108192017717510E-05
RMS Density                                R      2.572583881125787E-09
External E-field                           R   N=          35
  0.00000000E+00  0.00000000E+00  0.00000000E+00  0.00000000E+00  0.00000000E+00
  0.00000000E+00  0.00000000E+00  0.00000000E+00  0.00000000E+00  0.00000000E+00
  0.00000000E+00  0.00000000E+00  0.00000000E+00  0.00000000E+00  0.00000000E+00
  0.00000000E+00  0.00000000E+00  0.00000000E+00  0.00000000E+00  0.00000000E+00
  0.00000000E+00  0.00000000E+00  0.00000000E+00  0.00000000E+00  0.00000000E+00
  0.00000000E+00  0.00000000E+00  0.00000000E+00  0.00000000E+00  0.00000000E+00
  0.00000000E+00  0.00000000E+00  0.00000000E+00  0.00000000E+00  0.00000000E+00
IOpCl                                      I                0
IROHF                                      I                0
Alpha Orbital Energies                     R   N=         144
 -2.05826239E+01 -2.05791906E+01 -2.05653962E+01 -2.05553428E+01 -2.05400102E+01
 -2.05386113E+01 -1.37471723E+00 -1.35669917E+00 -1.35355593E+00 -1.33554400E+00
 -1.32329712E+00 -1.31467317E+00 -7.47549140E-01 -7.20140611E-01 -7.13994478E-01
 -7.01773296E-01 -6.87599423E-01 -6.80070751E-01 -6.16534635E-01 -6.14622544E-01
 -5.90829407E-01 -5.82152907E-01 -5.74243728E-01 -5.48930799E-01 -5.20067376E-01
 -5.11933479E-01 -5.03179159E-01 -4.92276939E-01 -4.82644641E-01 -4.70236504E-01
  1.54996544E-01  1.91395518E-01  1.97903073E-01  2.72904600E-01  2.75050019E-01
  3.08204102E-01  3.49006225E-01  3.66902992E-01  3.79422955E-01  4.00708820E-01
  4.10360564E-01  4.26994222E-01  7.05642970E-01  7.07096540E-01  7.30911819E-01
  7.38882353E-01  7.85184059E-01  7.92967066E-01  8.18995053E-01  8.21369896E-01
  8.49082382E-01  8.72564229E-01  8.82411740E-01  9.05858053E-01  1.06336798E+00
  1.09439686E+00  1.16076951E+00  1.17826510E+00  1.19724048E+00  1.22251601E+00
  1.23450570E+00  1.24966143E+00  1.26227539E+00  1.27690484E+00  1.28087417E+00
  1.30145050E+00  1.32013775E+00  1.33500016E+00  1.34646453E+00  1.36310299E+00
  1.40144531E+00  1.43024348E+00  1.43774818E+00  1.45232350E+00  1.45696274E+00
  1.48070553E+00  1.48288472E+00  1.52422741E+00  1.53019232E+00  1.56291845E+00
  1.58499023E+00  1.61026185E+00  1.63414895E+00  1.65508311E+00  1.71563093E+00
  1.72405887E+00  1.73587279E+00  1.75673241E+00  1.76140648E+00  1.78458581E+00
  1.85769309E+00  1.86996935E+00  1.90438700E+00  1.91243000E+00  1.97184809E+00
  1.98381709E+00  2.00062270E+00  2.01800271E+00  2.05095668E+00  2.06876817E+00
  2.08924266E+00  2.11226980E+00  2.41701694E+00  2.42971352E+00  2.43789049E+00
  2.47456020E+00  2.50862381E+00  2.59264350E+00  2.66390435E+00  2.68521012E+00
  2.70899733E+00  2.71634280E+00  2.86793757E+00  2.90410841E+00  3.21670128E+00
  3.22892258E+00  3.24667061E+00  3.26902072E+00  3.28339964E+00  3.29001477E+00
  3.30942762E+00  3.32691268E+00  3.33650826E+00  3.34801106E+00  3.38015249E+00
  3.39984938E+00  3.48902905E+00  3.50457546E+00  3.51164705E+00  3.52092965E+00
  3.53443158E+00  3.54397377E+00  3.80927774E+00  3.82116587E+00  3.86156154E+00
  3.87941030E+00  3.91428121E+00  3.92706447E+00  4.15306385E+00  4.17574089E+00
  4.18890114E+00  4.19661422E+00  4.21713898E+00  4.22078087E+00
Alpha MO coefficients                      R   N=       20736
 -3.49405215E-05  8.20175339E-05 -1.16951436E-04 -5.06043442E-05 -1.20371664E-05
 -2.06382016E-05  1.33553539E-04  2.44674284E-05  7.40728339E-05  4.07860528E-06
  1.35722987E-05  1.80876412E-06  1.27964035E-06  6.89118502E-06  1.92456070E-05
  3.52026226E-04 -1.16889426E-04  7.75650421E-06  1.62531441E-05  9.31768184E-06
 -1.73171711E-04  5.84068189E-06 -9.62127157E-06  1.47883631E-05  9.97103073E-01
  1.54566894E-02 -3.29474680E-03 -9.20486526E-04 -1.00665196E-03  6.16673508E-04
  1.31500576E-04  2.38086347E-04 -4.55934267E-04  4.47727402E-05  2.85441240E-05
  3.79104656E-05 -1.09817763E-05  8.94294816E-05 -1.51420758E-04  1.40278041E-04
 -4.31396806E-04 -4.99814289E-04 -2.82993927E-04 -3.40655486E-06  9.80856827E-04
 -6.34851155E-05 -2.63036554E-05  5.79321943E-04 -5.91306706E-04  1.34969376E-04
 -3.08805695E-04 -1.64831546E-05 -5.20675812E-05 -6.69693864E-05  7.01315092E-05
  1.44820243E-04  3.74336255E-04 -2.04824110E-05 -9.48884924E-06 -4.78274006E-07
  5.85854565E-06 -6.68652863E-06  5.57491800E-05 -5.62456571E-05 -1.26732355E-05
 -4.27965637E-05 -2.48708938E-05  7.30922226E-06 -1.14319855E-04 -4.97047488E-05
 -3.02384936E-05 -3.94232722E-05 -9.86156031E-06 -2.21019726E-05  6.64492867E-05
 -3.31683433E-06  4.07847604E-06 -2.73828292E-07 -2.25680337E-05 -3.30533560E-05
 -2.59808728E-06  1.14362240E-06 -2.24619425E-06  3.73549330E-06  4.54543402E-06
 -7.66299941E-07  2.39258781E-06  9.81385120E-05 -9.44921569E-06 -8.80187465E-06
 -9.09776778E-06  1.14426204E-05 -1.38612286E-04 -1.47478470E-05  5.01827503E-07
  5.83109521E-06 -5.10648257E-05  4.88148788E-05 -1.30492687E-04 -9.90687856E-06
  5.60341303E-07 -1.41850738E-05  6.09879291E-05  7.22630614E-05  7.85301013E-05
  7.52676615E-06  1.06580273E-06 -1.36479041E-05  1.65525624E-05 -3.59203016E-06
  1.23383617E-06 -9.94152693E-05  1.04445436E-05  4.08253577E-06 -3.49861554E-06
  1.10742640E-05  2.11110070E-04  8.61939210E-06 -3.37597606E-05  2.60998349E-05
 -1.92769792E-05 -1.99711168E-05  8.07088062E-05 -5.97583165E-07 -1.16768592E-06
  5.70235948E-07 -2.19279228E-06 -7.82781748E-06 -2.07286647E-05 -2.10665444E-06
 -1.88793685E-06  9.67084830E-07 -1.38672482E-06  2.82211307E-06 -1.88769502E-05
  3.65109543E-05  3.93974606E-06 -1.03487469E-06 -3.98730897E-06  7.90546245E-06
 -1.31442476E-04  8.86081049E-06 -8.91688828E-06 -4.00213401E-06 -4.09420004E-06
 -9.03526152E-06  4.78209471E-05 -5.08858019E-06  7.63485907E-06  6.51938643E-06
  6.54430321E-06 -3.44823933E-05 -8.02196079E-06  1.08841278E-07 -1.76195774E-06
 -1.17199241E-06 -5.66610470E-07  7.59493851E-07  1.05746733E-05 -7.02535066E-05
  4.50091963E-07  1.75029741E-06 -8.49855708E-06  1.83146166E-05 -7.92721040E-05
  7.54588734E-06 -7.12539694E-07  7.75309382E-06  6.09698584E-04  1.13542150E-04
 -2.17421501E-04 -1.19645215E-05 -7.15912103E-06  5.44918768E-05  2.58800163E-05
 -2.54328342E-05 -1.64417665E-04  9.82220764E-07 -1.22521606E-05 -2.86222529E-05
 -6.28766156E-07  2.22390657E-07  3.29190018E-05 -1.25746757E-04 -3.27641453E-06