 Entering Gaussian System, Link 0=/share/apps/gaussian/g09/g09
 Initial command:
 /share/apps/gaussian/g09/l1.exe /scratch/kyagi/h2o_6-mp2dz.32177/Gau-32184.inp -scrdir=/scratch/kyagi/h2o_6-mp2dz.32177/
 Entering Link 1 = /share/apps/gaussian/g09/l1.exe PID=     32185.
  
 Copyright (c) 1988,1990,1992,1993,1995,1998,2003,2009,2010,
            Gaussian, Inc.  All Rights Reserved.
  
 This is part of the Gaussian(R) 09 program.  It is based on
 the Gaussian(R) 03 system (copyright 2003, Gaussian, Inc.),
 the Gaussian(R) 98 system (copyright 1998, Gaussian, Inc.),
 the Gaussian(R) 94 system (copyright 1995, Gaussian, Inc.),
 the Gaussian 92(TM) system (copyright 1992, Gaussian, Inc.),
 the Gaussian 90(TM) system (copyright 1990, Gaussian, Inc.),
 the Gaussian 88(TM) system (copyright 1988, Gaussian, Inc.),
 the Gaussian 86(TM) system (copyright 1986, Carnegie Mellon
 University), and the Gaussian 82(TM) system (copyright 1983,
 Carnegie Mellon University). Gaussian is a federally registered
 trademark of Gaussian, Inc.
  
 This software contains proprietary and confidential information,
 including trade secrets, belonging to Gaussian, Inc.
  
 This software is provided under written license and may be
 used, copied, transmitted, or stored only in accord with that
 written license.
  
 The following legend is applicable only to US Government
 contracts under FAR:
  
                    RESTRICTED RIGHTS LEGEND
  
 Use, reproduction and disclosure by the US Government is
 subject to restrictions as set forth in subparagraphs (a)
 and (c) of the Commercial Computer Software - Restricted
 Rights clause in FAR 52.227-19.
  
 Gaussian, Inc.
 340 Quinnipiac St., Bldg. 40, Wallingford CT 06492
  
  
 ---------------------------------------------------------------
 Warning -- This program may not be used in any manner that
 competes with the business of Gaussian, Inc. or will provide
 assistance to any competitor of Gaussian, Inc.  The licensee
 of this program is prohibited from giving any competitor of
 Gaussian, Inc. access to this program.  By using this program,
 the user acknowledges that Gaussian, Inc. is engaged in the
 business of creating and licensing software in the field of
 computational chemistry and represents and warrants to the
 licensee that it is not a competitor of Gaussian, Inc. and that
 it will not use this program in any manner prohibited above.
 ---------------------------------------------------------------
  

 Cite this work as:
 Gaussian 09, Revision B.01,
 M. J. Frisch, G. W. Trucks, H. B. Schlegel, G. E. Scuseria, 
 M. A. Robb, J. R. Cheeseman, G. Scalmani, V. Barone, B. Mennucci, 
 G. A. Petersson, H. Nakatsuji, M. Caricato, X. Li, H. P. Hratchian, 
 A. F. Izmaylov, J. Bloino, G. Zheng, J. L. Sonnenberg, M. Hada, 
 M. Ehara, K. Toyota, R. Fukuda, J. Hasegawa, M. Ishida, T. Nakajima, 
 Y. Honda, O. Kitao, H. Nakai, T. Vreven, J. A. Montgomery, Jr., 
 J. E. Peralta, F. Ogliaro, M. Bearpark, J. J. Heyd, E. Brothers, 
 K. N. Kudin, V. N. Staroverov, T. Keith, R. Kobayashi, J. Normand, 
 K. Raghavachari, A. Rendell, J. C. Burant, S. S. Iyengar, J. Tomasi, 
 M. Cossi, N. Rega, J. M. Millam, M. Klene, J. E. Knox, J. B. Cross, 
 V. Bakken, C. Adamo, J. Jaramillo, R. Gomperts, R. E. Stratmann, 
 O. Yazyev, A. J. Austin, R. Cammi, C. Pomelli, J. W. Ochterski, 
 R. L. Martin, K. Morokuma, V. G. Zakrzewski, G. A. Voth, 
 P. Salvador, J. J. Dannenberg, S. Dapprich, A. D. Daniels, 
 O. Farkas, J. B. Foresman, J. V. Ortiz, J. Cioslowski, 
 and D. J. Fox, Gaussian, Inc., Wallingford CT, 2010.
 
 ******************************************
 Gaussian 09:  AM64L-G09RevB.01 12-Aug-2010
                13-Dec-2011 
 ******************************************
 %NprocShared=16
 Will use up to   16 processors via shared memory.
 %chk=h2o_6-mp2dz.chk
 %mem=3GB
 ---------------------------------
 #p MP2/cc-pVDZ scfcyc=50 opt freq
 ---------------------------------
 1/18=20,19=15,38=1/1,3;
 2/9=110,12=2,17=6,18=5,40=1/2;
 3/5=16,11=9,16=1,25=1,30=1,71=1/1,2,3;
 4//1;
 5/5=2,7=50,38=5/2;
 8/6=4,10=1/1;
 9/15=2,16=-3/6;
 10/5=1/2;
 6/7=2,8=2,9=2,10=2/1;
 7/12=2/1,2,3,16;
 1/18=20,19=15/3(2);
 2/9=110/2;
 99//99;
 2/9=110/2;
 3/5=16,11=9,16=1,25=1,30=1,71=1/1,2,3;
 4/5=5,16=3/1;
 5/5=2,7=50,38=5/2;
 8/6=4,10=1/1;
 9/15=2,16=-3/6;
 10/5=1/2;
 7/12=2/1,2,3,16;
 1/18=20,19=15/3(-8);
 2/9=110/2;
 6/7=2,8=2,9=2,10=2/1;
 99//99;
 Leave Link    1 at Tue Dec 13 10:14:37 2011, MaxMem=  402653184 cpu:       1.3
 (Enter /share/apps/gaussian/g09/l101.exe)
 ------
 (H2O)6
 ------
 Symbolic Z-matrix:
 Charge =  0 Multiplicity = 1
 O                     0.92688  -1.62985  -1.01371 
 H                     0.33936  -1.03785  -1.52979 
 H                     0.34218  -1.92837  -0.27484 
 O                    -0.83877   0.34987  -1.98416 
 H                    -1.36372   0.33887  -2.79735 
 H                    -1.49042   0.3071   -1.24379 
 O                    -1.9286    0.52246   0.49057 
 H                    -1.19278   1.21153   0.51802 
 H                    -2.71431   0.95461   0.85533 
 O                    -0.42159  -1.69388   1.38946 
 H                     0.35675  -1.16465   1.64746 
 H                    -1.08985  -1.00188   1.20165 
 O                     0.16048   2.06185   0.09395 
 H                     0.8819    1.46402   0.41332 
 H                     0.08858   1.8263   -0.85037 
 O                     1.82054   0.03271   0.82352 
 H                     2.77684   0.01629   0.97211 
 H                     1.65378  -0.58079   0.04236 
 
 NAtoms=     18 NQM=     18 NQMF=      0 NMic=      0 NMicF=      0 NTot=     18.
                    Isotopes and Nuclear Properties:
 (Nuclear quadrupole moments (NQMom) in fm**2, nuclear magnetic moments (NMagM)
  in nuclear magnetons)

  Atom         1           2           3           4           5           6           7           8           9          10
 IAtWgt=          16           1           1          16           1           1          16           1           1          16
 AtmWgt=  15.9949146   1.0078250   1.0078250  15.9949146   1.0078250   1.0078250  15.9949146   1.0078250   1.0078250  15.9949146
 NucSpn=           0           1           1           0           1           1           0           1           1           0
 AtZEff=   0.0000000   0.0000000   0.0000000   0.0000000   0.0000000   0.0000000   0.0000000   0.0000000   0.0000000   0.0000000
 NQMom=    0.0000000   0.0000000   0.0000000   0.0000000   0.0000000   0.0000000   0.0000000   0.0000000   0.0000000   0.0000000
 NMagM=    0.0000000   2.7928460   2.7928460   0.0000000   2.7928460   2.7928460   0.0000000   2.7928460   2.7928460   0.0000000

  Atom        11          12          13          14          15          16          17          18
 IAtWgt=           1           1          16           1           1          16           1           1
 AtmWgt=   1.0078250   1.0078250  15.9949146   1.0078250   1.0078250  15.9949146   1.0078250   1.0078250
 NucSpn=           1           1           0           1           1           0           1           1
 AtZEff=   0.0000000   0.0000000   0.0000000   0.0000000   0.0000000   0.0000000   0.0000000   0.0000000
 NQMom=    0.0000000   0.0000000   0.0000000   0.0000000   0.0000000   0.0000000   0.0000000   0.0000000
 NMagM=    2.7928460   2.7928460   0.0000000   2.7928460   2.7928460   0.0000000   2.7928460   2.7928460
 Leave Link  101 at Tue Dec 13 10:14:37 2011, MaxMem=  402653184 cpu:       2.1
 (Enter /share/apps/gaussian/g09/l103.exe)

 GradGradGradGradGradGradGradGradGradGradGradGradGradGradGradGradGradGrad
 Berny optimization.
 Initialization pass.
                           ----------------------------
                           !    Initial Parameters    !
                           ! (Angstroms and Degrees)  !
 --------------------------                            --------------------------
 ! Name  Definition              Value          Derivative Info.                !
 --------------------------------------------------------------------------------
 ! R1    R(1,2)                  0.9808         estimate D2E/DX2                !
 ! R2    R(1,3)                  0.9884         estimate D2E/DX2                !
 ! R3    R(1,18)                 1.6566         estimate D2E/DX2                !
 ! R4    R(2,4)                  1.8762         estimate D2E/DX2                !
 ! R5    R(3,10)                 1.8461         estimate D2E/DX2                !
 ! R6    R(4,5)                  0.968          estimate D2E/DX2                !
 ! R7    R(4,6)                  0.9872         estimate D2E/DX2                !
 ! R8    R(4,15)                 2.0797         estimate D2E/DX2                !
 ! R9    R(6,7)                  1.8018         estimate D2E/DX2                !
 ! R10   R(7,8)                  1.0085         estimate D2E/DX2                !
 ! R11   R(7,9)                  0.9681         estimate D2E/DX2                !
 ! R12   R(7,12)                 1.8796         estimate D2E/DX2                !
 ! R13   R(8,13)                 1.6535         estimate D2E/DX2                !
 ! R14   R(10,11)                0.9759         estimate D2E/DX2                !
 ! R15   R(10,12)                0.9802         estimate D2E/DX2                !
 ! R16   R(11,16)                2.0628         estimate D2E/DX2                !
 ! R17   R(13,14)                0.9899         estimate D2E/DX2                !
 ! R18   R(13,15)                0.9759         estimate D2E/DX2                !
 ! R19   R(14,16)                1.7601         estimate D2E/DX2                !
 ! R20   R(16,17)                0.9679         estimate D2E/DX2                !
 ! R21   R(16,18)                1.0072         estimate D2E/DX2                !
 ! A1    A(2,1,3)              102.7839         estimate D2E/DX2                !
 ! A2    A(2,1,18)             102.4771         estimate D2E/DX2                !
 ! A3    A(3,1,18)              88.5262         estimate D2E/DX2                !
 ! A4    A(1,2,4)              161.8047         estimate D2E/DX2                !
 ! A5    A(1,3,10)             151.6779         estimate D2E/DX2                !
 ! A6    A(2,4,5)              122.3833         estimate D2E/DX2                !
 ! A7    A(2,4,6)              101.5848         estimate D2E/DX2                !
 ! A8    A(2,4,15)              96.4918         estimate D2E/DX2                !
 ! A9    A(5,4,6)              105.7573         estimate D2E/DX2                !
 ! A10   A(5,4,15)             135.0622         estimate D2E/DX2                !
 ! A11   A(6,4,15)              85.1952         estimate D2E/DX2                !
 ! A12   A(4,6,7)              151.311          estimate D2E/DX2                !
 ! A13   A(6,7,8)               86.0106         estimate D2E/DX2                !
 ! A14   A(6,7,9)              127.8389         estimate D2E/DX2                !
 ! A15   A(6,7,12)              99.1315         estimate D2E/DX2                !
 ! A16   A(8,7,9)              106.0764         estimate D2E/DX2                !
 ! A17   A(8,7,12)             102.6064         estimate D2E/DX2                !
 ! A18   A(9,7,12)             125.5687         estimate D2E/DX2                !
 ! A19   A(7,8,13)             160.3109         estimate D2E/DX2                !
 ! A20   A(3,10,11)             88.6968         estimate D2E/DX2                !
 ! A21   A(3,10,12)            101.4784         estimate D2E/DX2                !
 ! A22   A(11,10,12)           102.2137         estimate D2E/DX2                !
 ! A23   A(10,11,16)           140.8141         estimate D2E/DX2                !
 ! A24   A(7,12,10)            161.68           estimate D2E/DX2                !
 ! A25   A(8,13,14)            101.7205         estimate D2E/DX2                !
 ! A26   A(8,13,15)             93.6547         estimate D2E/DX2                !
 ! A27   A(14,13,15)           102.7159         estimate D2E/DX2                !
 ! A28   A(13,14,16)           162.7426         estimate D2E/DX2                !
 ! A29   A(4,15,13)            137.0306         estimate D2E/DX2                !
 ! A30   A(11,16,14)           100.7593         estimate D2E/DX2                !
 ! A31   A(11,16,17)           129.0446         estimate D2E/DX2                !
 ! A32   A(11,16,18)            80.7195         estimate D2E/DX2                !
 ! A33   A(14,16,17)           125.2023         estimate D2E/DX2                !
 ! A34   A(14,16,18)           103.0782         estimate D2E/DX2                !
 ! A35   A(17,16,18)           105.8021         estimate D2E/DX2                !
 ! A36   A(1,18,16)            162.3354         estimate D2E/DX2                !
 ! D1    D(3,1,2,4)             54.4026         estimate D2E/DX2                !
 ! D2    D(18,1,2,4)           -36.9266         estimate D2E/DX2                !
 ! D3    D(2,1,3,10)           -84.4288         estimate D2E/DX2                !
 ! D4    D(18,1,3,10)           18.0324         estimate D2E/DX2                !
 ! D5    D(2,1,18,16)           77.0819         estimate D2E/DX2                !
 ! D6    D(3,1,18,16)          -25.6864         estimate D2E/DX2                !
 ! D7    D(1,2,4,5)           -162.319          estimate D2E/DX2                !
 ! D8    D(1,2,4,6)            -45.0436         estimate D2E/DX2                !
 ! D9    D(1,2,4,15)            41.36           estimate D2E/DX2                !
 ! D10   D(1,3,10,11)          -28.2194         estimate D2E/DX2                !
 ! D11   D(1,3,10,12)           73.9798         estimate D2E/DX2                !
 ! D12   D(2,4,6,7)             69.0485         estimate D2E/DX2                !
 ! D13   D(5,4,6,7)           -162.2026         estimate D2E/DX2                !
 ! D14   D(15,4,6,7)           -26.6094         estimate D2E/DX2                !
 ! D15   D(2,4,15,13)          -74.1643         estimate D2E/DX2                !
 ! D16   D(5,4,15,13)          134.5315         estimate D2E/DX2                !
 ! D17   D(6,4,15,13)           26.9788         estimate D2E/DX2                !
 ! D18   D(4,6,7,8)             26.1763         estimate D2E/DX2                !
 ! D19   D(4,6,7,9)            133.4734         estimate D2E/DX2                !
 ! D20   D(4,6,7,12)           -75.9683         estimate D2E/DX2                !
 ! D21   D(6,7,8,13)           -18.3941         estimate D2E/DX2                !
 ! D22   D(9,7,8,13)          -146.7002         estimate D2E/DX2                !
 ! D23   D(12,7,8,13)           80.0833         estimate D2E/DX2                !
 ! D24   D(6,7,12,10)           45.7862         estimate D2E/DX2                !
 ! D25   D(8,7,12,10)          -42.1359         estimate D2E/DX2                !
 ! D26   D(9,7,12,10)         -162.7183         estimate D2E/DX2                !
 ! D27   D(7,8,13,14)          -78.9231         estimate D2E/DX2                !
 ! D28   D(7,8,13,15)           24.8757         estimate D2E/DX2                !
 ! D29   D(3,10,11,16)          27.1054         estimate D2E/DX2                !
 ! D30   D(12,10,11,16)        -74.3576         estimate D2E/DX2                !
 ! D31   D(3,10,12,7)          -38.1188         estimate D2E/DX2                !
 ! D32   D(11,10,12,7)          53.0392         estimate D2E/DX2                !
 ! D33   D(10,11,16,14)         72.1135         estimate D2E/DX2                !
 ! D34   D(10,11,16,17)       -132.43           estimate D2E/DX2                !
 ! D35   D(10,11,16,18)        -29.5599         estimate D2E/DX2                !
 ! D36   D(8,13,14,16)          35.8339         estimate D2E/DX2                !
 ! D37   D(15,13,14,16)        -60.6862         estimate D2E/DX2                !
 ! D38   D(8,13,15,4)          -20.5785         estimate D2E/DX2                !
 ! D39   D(14,13,15,4)          82.3117         estimate D2E/DX2                !
 ! D40   D(13,14,16,11)        -42.1689         estimate D2E/DX2                !
 ! D41   D(13,14,16,17)        161.0855         estimate D2E/DX2                !
 ! D42   D(13,14,16,18)         40.686          estimate D2E/DX2                !
 ! D43   D(11,16,18,1)          25.3392         estimate D2E/DX2                !
 ! D44   D(14,16,18,1)         -73.6492         estimate D2E/DX2                !
 ! D45   D(17,16,18,1)         153.4441         estimate D2E/DX2                !
 --------------------------------------------------------------------------------
 Trust Radius=3.00D-01 FncErr=1.00D-07 GrdErr=1.00D-07
 Number of steps in this run=    108 maximum allowed number of steps=    108.
 GradGradGradGradGradGradGradGradGradGradGradGradGradGradGradGradGradGrad

 Leave Link  103 at Tue Dec 13 10:14:37 2011, MaxMem=  402653184 cpu:       0.3
 (Enter /share/apps/gaussian/g09/l202.exe)
                          Input orientation:                          
 ---------------------------------------------------------------------
 Center     Atomic      Atomic             Coordinates (Angstroms)
 Number     Number       Type             X           Y           Z
 ---------------------------------------------------------------------
      1          8           0        0.926883   -1.629854   -1.013707
      2          1           0        0.339362   -1.037852   -1.529790
      3          1           0        0.342175   -1.928367   -0.274839
      4          8           0       -0.838765    0.349867   -1.984163
      5          1           0       -1.363717    0.338866   -2.797353
      6          1           0       -1.490418    0.307097   -1.243785
      7          8           0       -1.928603    0.522462    0.490568
      8          1           0       -1.192785    1.211530    0.518019
      9          1           0       -2.714308    0.954612    0.855329
     10          8           0       -0.421590   -1.693876    1.389462
     11          1           0        0.356745   -1.164653    1.647462
     12          1           0       -1.089851   -1.001885    1.201651
     13          8           0        0.160484    2.061848    0.093947
     14          1           0        0.881901    1.464021    0.413315
     15          1           0        0.088583    1.826295   -0.850373
     16          8           0        1.820541    0.032711    0.823520
     17          1           0        2.776835    0.016285    0.972105
     18          1           0        1.653776   -0.580786    0.042358
 ---------------------------------------------------------------------
                    Distance matrix (angstroms):
                    1          2          3          4          5
     1  O    0.000000
     2  H    0.980810   0.000000
     3  H    0.988392   1.538807   0.000000
     4  O    2.824640   1.876220   3.083303   0.000000
     5  H    3.507720   2.530325   3.796510   0.967974   0.000000
     6  H    3.106133   2.288838   3.048697   0.987239   1.559050
     7  O    3.879318   3.414688   3.427659   2.709581   3.341142
     8  H    3.861689   3.405982   3.583808   2.669964   3.432558
     9  H    4.840561   4.357018   4.350970   3.456312   3.942756
    10  O    2.756392   3.087304   1.846137   3.966392   4.748585
    11  H    2.761031   3.179829   2.068505   4.112386   4.997693
    12  H    3.060943   3.082972   2.255901   3.469825   4.226659
    13  O    3.929749   3.503806   4.011338   2.871919   3.694790
    14  H    3.407415   3.213934   3.503306   3.154351   4.076415
    15  H    3.560111   2.954291   3.806972   2.079734   2.848219
    16  O    2.634037   2.979608   2.690313   3.880152   4.831558
    17  H    3.174200   3.648556   3.356205   4.682239   5.608658
    18  H    1.656560   2.099582   1.907062   3.344497   4.244406
                    6          7          8          9         10
     6  H    0.000000
     7  O    1.801768   0.000000
     8  H    2.002633   1.008462   0.000000
     9  H    2.514649   0.968058   1.579499   0.000000
    10  O    3.475669   2.826880   3.129783   3.543493   0.000000
    11  H    3.733279   3.067177   3.053347   3.814463   0.975934
    12  H    2.802507   1.879568   2.318869   2.566453   0.980152
    13  O    2.755750   2.625129   1.653546   3.173343   4.015300
    14  H    3.116465   2.965035   2.092615   3.658906   3.553064
    15  H    2.226203   2.750844   1.972901   3.394915   4.203420
    16  O    3.912990   3.795628   3.250089   4.627717   2.885922
    17  H    4.817073   4.757020   4.170454   5.571961   3.650857
    18  H    3.511190   3.775114   3.397287   4.700907   2.713080
                   11         12         13         14         15
    11  H    0.000000
    12  H    1.522459   0.000000
    13  O    3.586396   3.489528   0.000000
    14  H    2.951073   3.254224   0.989866   0.000000
    15  H    3.906003   3.687562   0.975907   1.535416   0.000000
    16  O    2.062828   3.111873   2.721298   1.760103   3.003088
    17  H    2.776249   4.005075   3.435227   2.449278   3.718099
    18  H    2.144656   3.008118   3.035803   2.216898   3.006798
                   16         17         18
    16  O    0.000000
    17  H    0.967908   0.000000
    18  H    1.007176   1.575495   0.000000
 Stoichiometry    H12O6
 Framework group  C1[X(H12O6)]
 Deg. of freedom    48
 Full point group                 C1      NOp   1
 Largest Abelian subgroup         C1      NOp   1
 Largest concise Abelian subgroup C1      NOp   1
                         Standard orientation:                         
 ---------------------------------------------------------------------
 Center     Atomic      Atomic             Coordinates (Angstroms)
 Number     Number       Type             X           Y           Z
 ---------------------------------------------------------------------
      1          8           0        1.397707   -0.929795   -1.273918
      2          1           0        0.439289   -1.008189   -1.466992
      3          1           0        1.458270   -1.240212   -0.337492
      4          8           0       -1.423799   -0.820314   -1.349480
      5          1           0       -2.034648   -1.409099   -1.815494
      6          1           0       -1.578881   -0.979933   -0.387653
      7          8           0       -1.434831   -0.487753    1.339592
      8          1           0       -1.402419    0.459057    0.993907
      9          1           0       -2.123023   -0.501197    2.020289
     10          8           0        1.350878   -0.946873    1.482024
     11          1           0        1.595730   -0.015498    1.323800
     12          1           0        0.381370   -0.887016    1.613053
     13          8           0       -1.220825    1.731115   -0.046817
     14          1           0       -0.235591    1.816390   -0.090159
     15          1           0       -1.424993    1.195136   -0.836398
     16          8           0        1.483753    1.442089   -0.131589
     17          1           0        2.176504    2.036166   -0.454101
     18          1           0        1.525327    0.626634   -0.721257
 ---------------------------------------------------------------------
 Rotational constants (GHZ):      1.8337808      1.4496022      1.4340858
 Leave Link  202 at Tue Dec 13 10:14:37 2011, MaxMem=  402653184 cpu:       0.0
 (Enter /share/apps/gaussian/g09/l301.exe)
 Standard basis: CC-pVDZ (5D, 7F)
 Ernie: Thresh=  0.10000D-02 Tol=  0.10000D-05 Strict=F.
 Ernie:  12 primitive shells out of 192 were deleted.
 There are   144 symmetry adapted basis functions of A   symmetry.
 Integral buffers will be    131072 words long.
 Raffenetti 1 integral format.
 Two-electron integral symmetry is turned on.
   144 basis functions,   282 primitive gaussians,   150 cartesian basis functions
    30 alpha electrons       30 beta electrons
       nuclear repulsion energy       310.7212514255 Hartrees.
 IExCor=    0 DFT=F Ex=HF Corr=None ExCW=0 ScaHFX=  1.000000
 ScaDFX=  1.000000  1.000000  1.000000  1.000000 ScalE2=  1.000000  1.000000
 IRadAn=      0 IRanWt=     -1 IRanGd=            0 ICorTp=0
 NAtoms=   18 NActive=   18 NUniq=   18 SFac= 1.00D+00 NAtFMM=   50 NAOKFM=F Big=F
 Leave Link  301 at Tue Dec 13 10:14:38 2011, MaxMem=  402653184 cpu:       1.2
 (Enter /share/apps/gaussian/g09/l302.exe)
 NPDir=0 NMtPBC=     1 NCelOv=     1 NCel=       1 NClECP=     1 NCelD=      1
         NCelK=      1 NCelE2=     1 NClLst=     1 CellRange=     0.0.
 One-electron integrals computed using PRISM.
 NBasis=   144 RedAO= T  NBF=   144
 NBsUse=   144 1.00D-06 NBFU=   144
 Leave Link  302 at Tue Dec 13 10:14:38 2011, MaxMem=  402653184 cpu:       4.0
 (Enter /share/apps/gaussian/g09/l303.exe)
 DipDrv:  MaxL=1.
 Leave Link  303 at Tue Dec 13 10:14:38 2011, MaxMem=  402653184 cpu:       1.0
 (Enter /share/apps/gaussian/g09/l401.exe)
 Harris functional with IExCor=  205 diagonalized for initial guess.
 ExpMin= 1.22D-01 ExpMax= 1.17D+04 ExpMxC= 4.01D+02 IAcc=1 IRadAn=         1 AccDes= 0.00D+00
 HarFok:  IExCor=  205 AccDes= 0.00D+00 IRadAn=         1 IDoV= 1
 ScaDFX=  1.000000  1.000000  1.000000  1.000000
 FoFCou: FMM=F IPFlag=           0 FMFlag=      100000 FMFlg1=           0
         NFxFlg=           0 DoJE=T BraDBF=F KetDBF=T FulRan=T
         Omega=  0.000000  0.000000  1.000000  0.000000  0.000000 ICntrl=     500 IOpCl=  0
         NMat0=    1 NMatS0=    1 NMatT0=    0 NMatD0=    1 NMtDS0=    0 NMtDT0=    0
         I1Cent=           4 NGrid=           0.
 Petite list used in FoFCou.
 Harris En= -456.727502934180    
 Initial guess orbital symmetries:
       Occupied  (A) (A) (A) (A) (A) (A) (A) (A) (A) (A) (A) (A)
                 (A) (A) (A) (A) (A) (A) (A) (A) (A) (A) (A) (A)
                 (A) (A) (A) (A) (A) (A)
       Virtual   (A) (A) (A) (A) (A) (A) (A) (A) (A) (A) (A) (A)
                 (A) (A) (A) (A) (A) (A) (A) (A) (A) (A) (A) (A)
                 (A) (A) (A) (A) (A) (A) (A) (A) (A) (A) (A) (A)
                 (A) (A) (A) (A) (A) (A) (A) (A) (A) (A) (A) (A)
                 (A) (A) (A) (A) (A) (A) (A) (A) (A) (A) (A) (A)
                 (A) (A) (A) (A) (A) (A) (A) (A) (A) (A) (A) (A)
                 (A) (A) (A) (A) (A) (A) (A) (A) (A) (A) (A) (A)
                 (A) (A) (A) (A) (A) (A) (A) (A) (A) (A) (A) (A)
                 (A) (A) (A) (A) (A) (A) (A) (A) (A) (A) (A) (A)
                 (A) (A) (A) (A) (A) (A)
 The electronic state of the initial guess is 1-A.
 Leave Link  401 at Tue Dec 13 10:14:39 2011, MaxMem=  402653184 cpu:       6.3
 (Enter /share/apps/gaussian/g09/l502.exe)
 Closed shell SCF:
 Requested convergence on RMS density matrix=1.00D-08 within  50 cycles.
 Requested convergence on MAX density matrix=1.00D-06.
 Requested convergence on             energy=1.00D-06.
 No special actions if energy rises.
 Using DIIS extrapolation, IDIIS=  1040.
 Integral symmetry usage will be decided dynamically.
 Keep R1 ints in memory in canonical form, NReq=65929813.
 IEnd=       74924 IEndB=       74924 NGot=   402653184 MDV=   338470008
 LenX=   338470008 LenY=   338447067
 Symmetry not used in FoFDir.
 MinBra= 0 MaxBra= 2 Meth= 1.
 IRaf=       0 NMat=   1 IRICut=       1 DoRegI=T DoRafI=F ISym2E= 0 JSym2E=0.

 Cycle   1  Pass 1  IDiag  1:
 E= -455.905383871758    
 DIIS: error= 3.82D-02 at cycle   1 NSaved=   1.
 NSaved= 1 IEnMin= 1 EnMin= -455.905383871758     IErMin= 1 ErrMin= 3.82D-02
 ErrMax= 3.82D-02 EMaxC= 1.00D-01 BMatC= 5.13D-01 BMatP= 5.13D-01
 IDIUse=3 WtCom= 6.18D-01 WtEn= 3.82D-01
 Coeff-Com:  0.100D+01
 Coeff-En:   0.100D+01
 Coeff:      0.100D+01
 Gap=     0.552 Goal=   None    Shift=    0.000
 GapD=    0.552 DampG=2.000 DampE=0.500 DampFc=1.0000 IDamp=-1.
 RMSDP=3.89D-03 MaxDP=9.75D-02              OVMax= 8.94D-02

 Cycle   2  Pass 1  IDiag  1:
 E= -456.133800519176     Delta-E=       -0.228416647418 Rises=F Damp=F
 DIIS: error= 1.97D-02 at cycle   2 NSaved=   2.
 NSaved= 2 IEnMin= 2 EnMin= -456.133800519176     IErMin= 2 ErrMin= 1.97D-02
 ErrMax= 1.97D-02 EMaxC= 1.00D-01 BMatC= 1.32D-01 BMatP= 5.13D-01
 IDIUse=3 WtCom= 8.03D-01 WtEn= 1.97D-01
 Coeff-Com:  0.318D+00 0.682D+00
 Coeff-En:   0.167D-01 0.983D+00
 Coeff:      0.258D+00 0.742D+00
 Gap=     0.633 Goal=   None    Shift=    0.000
 RMSDP=1.71D-03 MaxDP=4.24D-02 DE=-2.28D-01 OVMax= 3.71D-02

 Cycle   3  Pass 1  IDiag  1:
 E= -456.221764635235     Delta-E=       -0.087964116059 Rises=F Damp=F
 DIIS: error= 3.20D-03 at cycle   3 NSaved=   3.
 NSaved= 3 IEnMin= 3 EnMin= -456.221764635235     IErMin= 3 ErrMin= 3.20D-03
 ErrMax= 3.20D-03 EMaxC= 1.00D-01 BMatC= 3.83D-03 BMatP= 1.32D-01
 IDIUse=3 WtCom= 9.68D-01 WtEn= 3.20D-02
 Coeff-Com: -0.345D-01 0.949D-01 0.940D+00
 Coeff-En:   0.000D+00 0.000D+00 0.100D+01
 Coeff:     -0.334D-01 0.919D-01 0.942D+00
 Gap=     0.622 Goal=   None    Shift=    0.000
 RMSDP=2.59D-04 MaxDP=6.90D-03 DE=-8.80D-02 OVMax= 6.87D-03

 Cycle   4  Pass 1  IDiag  1:
 E= -456.224725647945     Delta-E=       -0.002961012710 Rises=F Damp=F
 DIIS: error= 3.33D-04 at cycle   4 NSaved=   4.
 NSaved= 4 IEnMin= 4 EnMin= -456.224725647945     IErMin= 4 ErrMin= 3.33D-04
 ErrMax= 3.33D-04 EMaxC= 1.00D-01 BMatC= 3.92D-05 BMatP= 3.83D-03
 IDIUse=3 WtCom= 9.97D-01 WtEn= 3.33D-03
 Coeff-Com:  0.731D-02-0.400D-01-0.306D+00 0.134D+01
 Coeff-En:   0.000D+00 0.000D+00 0.000D+00 0.100D+01
 Coeff:      0.729D-02-0.399D-01-0.305D+00 0.134D+01
 Gap=     0.623 Goal=   None    Shift=    0.000
 RMSDP=8.32D-05 MaxDP=1.46D-03 DE=-2.96D-03 OVMax= 2.64D-03

 Cycle   5  Pass 1  IDiag  1:
 E= -456.224825112631     Delta-E=       -0.000099464686 Rises=F Damp=F
 DIIS: error= 1.25D-04 at cycle   5 NSaved=   5.
 NSaved= 5 IEnMin= 5 EnMin= -456.224825112631     IErMin= 5 ErrMin= 1.25D-04
 ErrMax= 1.25D-04 EMaxC= 1.00D-01 BMatC= 4.00D-06 BMatP= 3.92D-05
 IDIUse=3 WtCom= 9.99D-01 WtEn= 1.25D-03
 Coeff-Com:  0.279D-02-0.107D-01-0.884D-01 0.175D+00 0.921D+00
 Coeff-En:   0.000D+00 0.000D+00 0.000D+00 0.000D+00 0.100D+01
 Coeff:      0.278D-02-0.107D-01-0.883D-01 0.175D+00 0.921D+00
 Gap=     0.624 Goal=   None    Shift=    0.000
 RMSDP=1.94D-05 MaxDP=5.36D-04 DE=-9.95D-05 OVMax= 6.93D-04

 Cycle   6  Pass 1  IDiag  1:
 E= -456.224831928189     Delta-E=       -0.000006815558 Rises=F Damp=F
 DIIS: error= 4.75D-05 at cycle   6 NSaved=   6.
 NSaved= 6 IEnMin= 6 EnMin= -456.224831928189     IErMin= 6 ErrMin= 4.75D-05
 ErrMax= 4.75D-05 EMaxC= 1.00D-01 BMatC= 6.40D-07 BMatP= 4.00D-06
 IDIUse=1 WtCom= 1.00D+00 WtEn= 0.00D+00
 Coeff-Com: -0.877D-03 0.556D-02 0.438D-01-0.226D+00 0.134D+00 0.104D+01
 Coeff:     -0.877D-03 0.556D-02 0.438D-01-0.226D+00 0.134D+00 0.104D+01
 Gap=     0.624 Goal=   None    Shift=    0.000
 RMSDP=9.48D-06 MaxDP=2.39D-04 DE=-6.82D-06 OVMax= 3.23D-04

 Cycle   7  Pass 1  IDiag  1:
 E= -456.224833065967     Delta-E=       -0.000001137778 Rises=F Damp=F
 DIIS: error= 6.54D-06 at cycle   7 NSaved=   7.
 NSaved= 7 IEnMin= 7 EnMin= -456.224833065967     IErMin= 7 ErrMin= 6.54D-06
 ErrMax= 6.54D-06 EMaxC= 1.00D-01 BMatC= 1.29D-08 BMatP= 6.40D-07
 IDIUse=1 WtCom= 1.00D+00 WtEn= 0.00D+00
 Coeff-Com: -0.987D-04 0.337D-03 0.284D-02-0.120D-02-0.449D-01-0.286D-01
 Coeff-Com:  0.107D+01
 Coeff:     -0.987D-04 0.337D-03 0.284D-02-0.120D-02-0.449D-01-0.286D-01
 Coeff:      0.107D+01
 Gap=     0.624 Goal=   None    Shift=    0.000
 RMSDP=1.36D-06 MaxDP=3.53D-05 DE=-1.14D-06 OVMax= 5.25D-05

 Cycle   8  Pass 1  IDiag  1:
 E= -456.224833092928     Delta-E=       -0.000000026961 Rises=F Damp=F
 DIIS: error= 1.84D-06 at cycle   8 NSaved=   8.
 NSaved= 8 IEnMin= 8 EnMin= -456.224833092928     IErMin= 8 ErrMin= 1.84D-06
 ErrMax= 1.84D-06 EMaxC= 1.00D-01 BMatC= 1.12D-09 BMatP= 1.29D-08
 IDIUse=1 WtCom= 1.00D+00 WtEn= 0.00D+00
 Coeff-Com:  0.586D-04-0.362D-03-0.293D-02 0.139D-01-0.326D-02-0.594D-01
 Coeff-Com: -0.103D+00 0.115D+01
 Coeff:      0.586D-04-0.362D-03-0.293D-02 0.139D-01-0.326D-02-0.594D-01
 Coeff:     -0.103D+00 0.115D+01
 Gap=     0.624 Goal=   None    Shift=    0.000
 RMSDP=3.75D-07 MaxDP=1.05D-05 DE=-2.70D-08 OVMax= 1.32D-05

 Cycle   9  Pass 1  IDiag  1:
 E= -456.224833095164     Delta-E=       -0.000000002236 Rises=F Damp=F
 DIIS: error= 6.60D-07 at cycle   9 NSaved=   9.
 NSaved= 9 IEnMin= 9 EnMin= -456.224833095164     IErMin= 9 ErrMin= 6.60D-07
 ErrMax= 6.60D-07 EMaxC= 1.00D-01 BMatC= 1.52D-10 BMatP= 1.12D-09
 IDIUse=1 WtCom= 1.00D+00 WtEn= 0.00D+00
 Coeff-Com:  0.222D-04-0.116D-03-0.957D-03 0.350D-02 0.314D-02-0.123D-01
 Coeff-Com: -0.119D+00 0.287D+00 0.839D+00
 Coeff:      0.222D-04-0.116D-03-0.957D-03 0.350D-02 0.314D-02-0.123D-01
 Coeff:     -0.119D+00 0.287D+00 0.839D+00
 Gap=     0.624 Goal=   None    Shift=    0.000
 RMSDP=9.45D-08 MaxDP=3.08D-06 DE=-2.24D-09 OVMax= 3.50D-06

 Cycle  10  Pass 1  IDiag  1:
 E= -456.224833095354     Delta-E=       -0.000000000190 Rises=F Damp=F
 DIIS: error= 1.03D-07 at cycle  10 NSaved=  10.
 NSaved=10 IEnMin=10 EnMin= -456.224833095354     IErMin=10 ErrMin= 1.03D-07
 ErrMax= 1.03D-07 EMaxC= 1.00D-01 BMatC= 7.21D-12 BMatP= 1.52D-10
 IDIUse=1 WtCom= 1.00D+00 WtEn= 0.00D+00
 Coeff-Com: -0.510D-05 0.326D-04 0.258D-03-0.127D-02 0.478D-03 0.534D-02
 Coeff-Com:  0.425D-02-0.936D-01 0.215D-01 0.106D+01
 Coeff:     -0.510D-05 0.326D-04 0.258D-03-0.127D-02 0.478D-03 0.534D-02
 Coeff:      0.425D-02-0.936D-01 0.215D-01 0.106D+01
 Gap=     0.624 Goal=   None    Shift=    0.000
 RMSDP=2.73D-08 MaxDP=5.95D-07 DE=-1.90D-10 OVMax= 9.45D-07

 Cycle  11  Pass 1  IDiag  1:
 E= -456.224833095366     Delta-E=       -0.000000000012 Rises=F Damp=F
 DIIS: error= 2.26D-08 at cycle  11 NSaved=  11.
 NSaved=11 IEnMin=11 EnMin= -456.224833095366     IErMin=11 ErrMin= 2.26D-08
 ErrMax= 2.26D-08 EMaxC= 1.00D-01 BMatC= 2.27D-13 BMatP= 7.21D-12
 IDIUse=1 WtCom= 1.00D+00 WtEn= 0.00D+00
 Coeff-Com: -0.113D-05 0.587D-05 0.476D-04-0.178D-03-0.149D-03 0.586D-03
 Coeff-Com:  0.538D-02-0.105D-01-0.423D-01-0.467D-01 0.109D+01
 Coeff:     -0.113D-05 0.587D-05 0.476D-04-0.178D-03-0.149D-03 0.586D-03
 Coeff:      0.538D-02-0.105D-01-0.423D-01-0.467D-01 0.109D+01
 Gap=     0.624 Goal=   None    Shift=    0.000
 RMSDP=5.40D-09 MaxDP=1.04D-07 DE=-1.16D-11 OVMax= 1.69D-07

 SCF Done:  E(RHF) =  -456.224833095     A.U. after   11 cycles
             Convg  =    0.5402D-08             -V/T =  2.0013
 KE= 4.556433216477D+02 PE=-1.705259107942D+03 EE= 4.826697017738D+02
 Leave Link  502 at Tue Dec 13 10:14:44 2011, MaxMem=  402653184 cpu:      81.5
 (Enter /share/apps/gaussian/g09/l801.exe)
 ExpMin= 1.22D-01 ExpMax= 1.17D+04 ExpMxC= 4.01D+02 IAcc=1 IRadAn=         1 AccDes= 0.00D+00
 HarFok:  IExCor=  205 AccDes= 0.00D+00 IRadAn=         1 IDoV=-2
 ScaDFX=  1.000000  1.000000  1.000000  1.000000
 Largest valence mixing into a core orbital is  7.34D-05
 Largest core mixing into a valence orbital is  2.44D-05
 Range of M.O.s used for correlation:     7   144
 NBasis=   144 NAE=    30 NBE=    30 NFC=     6 NFV=     0
 NROrb=    138 NOA=    24 NOB=    24 NVA=   114 NVB=   114
 Leave Link  801 at Tue Dec 13 10:14:44 2011, MaxMem=  402653184 cpu:       2.0
 (Enter /share/apps/gaussian/g09/l906.exe)
 Frozen-core derivative calculation, NFC=   6 NFV=   0.
 FulOut=F Deriv=T AODrv=T NAtomX=    18
   MMem=         238  MDisk=          24 MDiskD=          24
  W3Min=      648000 MinDsk=      920825 NBas6D=         150
 NBas2D=       11487    NTT=       11325    LW2=     2040000
    MDV=   402304450 MDiskM=       37065 NBas2p=       11206
 Fully direct method using O(ONN) memory.
 IMap=   1   2   3   4   5   6   7   8   9  10  11  12  13  14  15  16  17  18  19  20
 IMap=  21  22  23  24  25  26  27  28  29  30
 JobTyp=1 Pass  1:  I=   7 to  16 NPSUse= 16 ParTrn=T ParDer=T DoDerP=T.
 JobTyp=1 Pass  2:  I=  17 to  26 NPSUse= 16 ParTrn=T ParDer=T DoDerP=T.
 JobTyp=1 Pass  3:  I=  27 to  30 NPSUse= 16 ParTrn=T ParDer=T DoDerP=T.
 Spin components of T(2) and E(2):
     alpha-alpha T2 =       0.4161543972D-01 E2=     -0.1625464137D+00
     alpha-beta  T2 =       0.2361949815D+00 E2=     -0.9318747087D+00
     beta-beta   T2 =       0.4161543972D-01 E2=     -0.1625464137D+00
 The integrals were generated   3 times.
 ANorm=    0.1148662640D+01
 E2 =    -0.1256967536D+01 EUMP2 =    -0.45748180063151D+03
 Leave Link  906 at Tue Dec 13 10:15:42 2011, MaxMem=  402653184 cpu:     922.4
 (Enter /share/apps/gaussian/g09/l1002.exe)
 Minotr:  Closed shell wavefunction.
          Computing MP2/KS-MP2 derivatives.
          Using Z-Vector for PSCF gradient.
          Skipping F1 and S1 gradient terms here.
          IDoAtm=111111111111111111
          Frozen-core window.
          Direct CPHF calculation.
          Differentiating once with respect to electric field.
                with respect to dipole field.
          Differentiating once with respect to nuclear coordinates.
          Requested convergence is 1.0D-10 RMS, and 1.0D-09 maximum.
          NewPWx=F KeepS1=T KeepF1=T KeepIn=T MapXYZ=F SortEE=F KeepMc=T.
          MDV=     402653000 using IRadAn=       0.
          Keep R1 ints in memory in canonical form, NReq=64954950.
 Symmetry not used in FoFDir.
 MinBra= 0 MaxBra= 2 Meth= 1.
 IRaf=       0 NMat=   1 IRICut=       1 DoRegI=T DoRafI=F ISym2E= 0 JSym2E=0.
          Solving linear equations separately, MaxMat=       0.
          There are     1 degrees of freedom in the 1st order CPHF.  IDoFFX=0.
 LinEq1:  Iter=  0 NonCon=     1 RMS=3.60D-03 Max=3.39D-02
 AX will form     1 AO Fock derivatives at one time.
 LinEq1:  Iter=  1 NonCon=     1 RMS=4.11D-04 Max=3.56D-03
 LinEq1:  Iter=  2 NonCon=     1 RMS=1.73D-04 Max=1.42D-03
 LinEq1:  Iter=  3 NonCon=     1 RMS=3.14D-05 Max=2.35D-04
 LinEq1:  Iter=  4 NonCon=     1 RMS=6.65D-06 Max=5.34D-05
 LinEq1:  Iter=  5 NonCon=     1 RMS=1.19D-06 Max=1.44D-05
 LinEq1:  Iter=  6 NonCon=     1 RMS=2.73D-07 Max=2.59D-06
 LinEq1:  Iter=  7 NonCon=     1 RMS=1.03D-07 Max=1.19D-06
 LinEq1:  Iter=  8 NonCon=     1 RMS=1.44D-08 Max=1.15D-07
 LinEq1:  Iter=  9 NonCon=     1 RMS=4.51D-09 Max=3.66D-08
 LinEq1:  Iter= 10 NonCon=     1 RMS=1.54D-09 Max=1.23D-08
 LinEq1:  Iter= 11 NonCon=     1 RMS=3.35D-10 Max=2.69D-09
 LinEq1:  Iter= 12 NonCon=     0 RMS=5.16D-11 Max=4.03D-10
 Linear equations converged to 1.000D-10 1.000D-09 after    12 iterations.
 End of Minotr Frequency-dependent properties file   721 does not exist.
 End of Minotr Frequency-dependent properties file   722 does not exist.
 Leave Link 1002 at Tue Dec 13 10:15:49 2011, MaxMem=  402653184 cpu:     112.3
 (Enter /share/apps/gaussian/g09/l601.exe)
 Copying SCF densities to generalized density rwf, IOpCl= 0 IROHF=0.

 **********************************************************************

            Population analysis using the SCF density.

 **********************************************************************

 Orbital symmetries:
       Occupied  (A) (A) (A) (A) (A) (A) (A) (A) (A) (A) (A) (A)
                 (A) (A) (A) (A) (A) (A) (A) (A) (A) (A) (A) (A)
                 (A) (A) (A) (A) (A) (A)
       Virtual   (A) (A) (A) (A) (A) (A) (A) (A) (A) (A) (A) (A)
                 (A) (A) (A) (A) (A) (A) (A) (A) (A) (A) (A) (A)
                 (A) (A) (A) (A) (A) (A) (A) (A) (A) (A) (A) (A)
                 (A) (A) (A) (A) (A) (A) (A) (A) (A) (A) (A) (A)
                 (A) (A) (A) (A) (A) (A) (A) (A) (A) (A) (A) (A)
                 (A) (A) (A) (A) (A) (A) (A) (A) (A) (A) (A) (A)
                 (A) (A) (A) (A) (A) (A) (A) (A) (A) (A) (A) (A)
                 (A) (A) (A) (A) (A) (A) (A) (A) (A) (A) (A) (A)
                 (A) (A) (A) (A) (A) (A) (A) (A) (A) (A) (A) (A)
                 (A) (A) (A) (A) (A) (A)
 The electronic state is 1-A.
 Alpha  occ. eigenvalues --  -20.58333 -20.57853 -20.56465 -20.55446 -20.53974
 Alpha  occ. eigenvalues --  -20.53777  -1.37364  -1.35398  -1.35087  -1.33252
 Alpha  occ. eigenvalues --   -1.31954  -1.31086  -0.74992  -0.72141  -0.71487
 Alpha  occ. eigenvalues --   -0.70207  -0.68751  -0.67950  -0.61611  -0.61229
 Alpha  occ. eigenvalues --   -0.58834  -0.58044  -0.57207  -0.54451  -0.51924
 Alpha  occ. eigenvalues --   -0.51004  -0.50112  -0.49004  -0.48050  -0.46830
 Alpha virt. eigenvalues --    0.15559   0.19171   0.19784   0.27641   0.27964
 Alpha virt. eigenvalues --    0.31030   0.34949   0.36931   0.38062   0.40264
 Alpha virt. eigenvalues --    0.41053   0.42748   0.70196   0.70301   0.72788
 Alpha virt. eigenvalues --    0.73418   0.77466   0.78230   0.80968   0.82129
 Alpha virt. eigenvalues --    0.84399   0.86391   0.87483   0.89843   1.05580
 Alpha virt. eigenvalues --    1.09289   1.16303   1.17715   1.19712   1.22191
 Alpha virt. eigenvalues --    1.23412   1.24920   1.26216   1.27700   1.27937
 Alpha virt. eigenvalues --    1.29635   1.32529   1.33771   1.35106   1.36945
 Alpha virt. eigenvalues --    1.40576   1.43953   1.44540   1.45750   1.46789
 Alpha virt. eigenvalues --    1.48075   1.49023   1.52996   1.53901   1.57368
 Alpha virt. eigenvalues --    1.59217   1.61891   1.64314   1.66079   1.71955
 Alpha virt. eigenvalues --    1.72771   1.74008   1.76354   1.77167   1.79031
 Alpha virt. eigenvalues --    1.86033   1.87487   1.90652   1.91056   1.97471
 Alpha virt. eigenvalues --    1.98639   2.00010   2.02439   2.05232   2.07622
 Alpha virt. eigenvalues --    2.09317   2.11909   2.41212   2.42634   2.43514
 Alpha virt. eigenvalues --    2.48232   2.51673   2.58993   2.67061   2.69016
 Alpha virt. eigenvalues --    2.70625   2.72126   2.86932   2.90739   3.20327
 Alpha virt. eigenvalues --    3.21607   3.23770   3.26516   3.27899   3.28797
 Alpha virt. eigenvalues --    3.30509   3.32904   3.33249   3.34921   3.38548
 Alpha virt. eigenvalues --    3.40318   3.47907   3.49984   3.51162   3.51744
 Alpha virt. eigenvalues --    3.52870   3.53760   3.80326   3.81676   3.86475
 Alpha virt. eigenvalues --    3.87813   3.93046   3.94063   4.14591   4.16646
 Alpha virt. eigenvalues --    4.18187   4.18753   4.20980   4.21460
          Condensed to atoms (all electrons):
              1          2          3          4          5          6
     1  O    7.674968   0.357053   0.347536  -0.012371   0.000369   0.001756
     2  H    0.357053   0.439026  -0.024349   0.041709  -0.002616  -0.003445
     3  H    0.347536  -0.024349   0.442912  -0.000104  -0.000028   0.001090
     4  O   -0.012371   0.041709  -0.000104   7.650073   0.353413   0.334064
     5  H    0.000369  -0.002616  -0.000028   0.353413   0.483892  -0.014181
     6  H    0.001756  -0.003445   0.001090   0.334064  -0.014181   0.436800
     7  O   -0.000066  -0.000119  -0.000081  -0.017425  -0.000330   0.047962
     8  H   -0.000105   0.000095  -0.000094   0.001907   0.000095  -0.007650
     9  H   -0.000004  -0.000007  -0.000004   0.000396  -0.000003  -0.002314
    10  O   -0.016442  -0.000140   0.053266  -0.000065  -0.000009   0.000611
    11  H    0.001877   0.000207  -0.006987   0.000012   0.000003  -0.000140
    12  H    0.001896   0.000753  -0.003815   0.000212  -0.000028   0.000536
    13  O   -0.000088   0.000355  -0.000129  -0.006176   0.000251   0.002080
    14  H    0.000455   0.000410  -0.000014  -0.001004  -0.000008   0.000436
    15  H    0.000184   0.000183  -0.000116   0.028387  -0.001351  -0.002703
    16  O   -0.029081   0.001474   0.002753  -0.000043   0.000000   0.000009
    17  H   -0.000078  -0.000073   0.000207   0.000004   0.000000   0.000002
    18  H    0.075339  -0.005132  -0.011643  -0.000089  -0.000005   0.000003
              7          8          9         10         11         12
     1  O   -0.000066  -0.000105  -0.000004  -0.016442   0.001877   0.001896
     2  H   -0.000119   0.000095  -0.000007  -0.000140   0.000207   0.000753
     3  H   -0.000081  -0.000094  -0.000004   0.053266  -0.006987  -0.003815
     4  O   -0.017425   0.001907   0.000396  -0.000065   0.000012   0.000212
     5  H   -0.000330   0.000095  -0.000003  -0.000009   0.000003  -0.000028
     6  H    0.047962  -0.007650  -0.002314   0.000611  -0.000140   0.000536
     7  O    7.707971   0.321076   0.352322  -0.011928  -0.000006   0.038158
     8  H    0.321076   0.400572  -0.012674   0.001581   0.001123  -0.002363
     9  H    0.352322  -0.012674   0.481491   0.000347  -0.000025  -0.002520
    10  O   -0.011928   0.001581   0.000347   7.643911   0.355484   0.361034
    11  H   -0.000006   0.001123  -0.000025   0.355484   0.474257  -0.029000
    12  H    0.038158  -0.002363  -0.002520   0.361034  -0.029000   0.441564
    13  O   -0.029537   0.073151   0.000056  -0.000064   0.000134   0.000284
    14  H    0.001386  -0.005567  -0.000105   0.000287   0.000176   0.000409
    15  H    0.002608  -0.010442   0.000177  -0.000079  -0.000090  -0.000024
    16  O   -0.000054   0.000077   0.000003  -0.006748   0.030213  -0.000933
    17  H    0.000001  -0.000016   0.000000   0.000230  -0.001320  -0.000008
    18  H    0.000034  -0.000025   0.000002   0.002605  -0.002773   0.000457
             13         14         15         16         17         18
     1  O   -0.000088   0.000455   0.000184  -0.029081  -0.000078   0.075339
     2  H    0.000355   0.000410   0.000183   0.001474  -0.000073  -0.005132
     3  H   -0.000129  -0.000014  -0.000116   0.002753   0.000207  -0.011643
     4  O   -0.006176  -0.001004   0.028387  -0.000043   0.000004  -0.000089
     5  H    0.000251  -0.000008  -0.001351   0.000000   0.000000  -0.000005
     6  H    0.002080   0.000436  -0.002703   0.000009   0.000002   0.000003
     7  O   -0.029537   0.001386   0.002608  -0.000054   0.000001   0.000034
     8  H    0.073151  -0.005567  -0.010442   0.000077  -0.000016  -0.000025
     9  H    0.000056  -0.000105   0.000177   0.000003   0.000000   0.000002
    10  O   -0.000064   0.000287  -0.000079  -0.006748   0.000230   0.002605
    11  H    0.000134   0.000176  -0.000090   0.030213  -0.001320  -0.002773
    12  H    0.000284   0.000409  -0.000024  -0.000933  -0.000008   0.000457
    13  O    7.663981   0.353481   0.353767  -0.018713   0.000508   0.002298
    14  H    0.353481   0.409729  -0.023787   0.050101  -0.003416  -0.003819
    15  H    0.353767  -0.023787   0.470568   0.000511  -0.000029   0.001168
    16  O   -0.018713   0.050101   0.000511   7.712932   0.352614   0.320804
    17  H    0.000508  -0.003416  -0.000029   0.352614   0.485522  -0.013696
    18  H    0.002298  -0.003819   0.001168   0.320804  -0.013696   0.404623
 Mulliken atomic charges:
              1
     1  O   -0.403199
     2  H    0.194618
     3  H    0.199599
     4  O   -0.372902
     5  H    0.180532
     6  H    0.205083
     7  O   -0.411971
     8  H    0.239257
     9  H    0.182862
    10  O   -0.383882
    11  H    0.176854
    12  H    0.193388
    13  O   -0.395638
    14  H    0.220852
    15  H    0.181067
    16  O   -0.415918
    17  H    0.179549
    18  H    0.229849
 Sum of Mulliken atomic charges =   0.00000
 Mulliken charges with hydrogens summed into heavy atoms:
              1
     1  O   -0.008981
     4  O    0.012713
     7  O    0.010148
    10  O   -0.013640
    13  O    0.006281
    16  O   -0.006520
 Sum of Mulliken charges with hydrogens summed into heavy atoms =   0.00000
 Electronic spatial extent (au):  <R**2>=           1060.0806
 Charge=              0.0000 electrons
 Dipole moment (field-independent basis, Debye):
    X=             -3.0587    Y=              0.2455    Z=             -0.4389  Tot=              3.0998
 Quadrupole moment (field-independent basis, Debye-Ang):
   XX=            -32.6806   YY=            -39.8456   ZZ=            -37.5978
   XY=             13.6137   XZ=             -1.7583   YZ=              0.8293
 Traceless Quadrupole moment (field-independent basis, Debye-Ang):
   XX=              4.0274   YY=             -3.1376   ZZ=             -0.8898
   XY=             13.6137   XZ=             -1.7583   YZ=              0.8293
 Octapole moment (field-independent basis, Debye-Ang**2):
  XXX=            -15.6365  YYY=             -4.3426  ZZZ=              2.8630  XYY=              4.6363
  XXY=              3.5585  XXZ=             -0.1433  XZZ=            -26.4988  YZZ=              3.5495
  YYZ=             -9.5659  XYZ=             -6.0142
 Hexadecapole moment (field-independent basis, Debye-Ang**3):
 XXXX=           -418.0194 YYYY=           -329.2855 ZZZZ=           -303.8230 XXXY=             72.6909
 XXXZ=            -12.0171 YYYX=             60.0796 YYYZ=              2.2738 ZZZX=            -13.4170
 ZZZY=              9.1003 XXYY=           -119.9252 XXZZ=           -111.4003 YYZZ=           -104.8039
 XXYZ=              1.9845 YYXZ=              2.7109 ZZXY=             33.6800
 N-N= 3.107212514255D+02 E-N=-1.705259108577D+03  KE= 4.556433216477D+02
 No NMR shielding tensors so no spin-rotation constants.
 Leave Link  601 at Tue Dec 13 10:15:50 2011, MaxMem=  402653184 cpu:       3.7
 (Enter /share/apps/gaussian/g09/l701.exe)
 Compute integral first derivatives.
 ... and contract with generalized density number  2.
 Leave Link  701 at Tue Dec 13 10:15:50 2011, MaxMem=  402653184 cpu:       4.3
 (Enter /share/apps/gaussian/g09/l702.exe)
 L702 exits ... SP integral derivatives will be done elsewhere.
 Leave Link  702 at Tue Dec 13 10:15:50 2011, MaxMem=  402653184 cpu:       0.9
 (Enter /share/apps/gaussian/g09/l703.exe)
 Compute integral first derivatives, UseDBF=F ICtDFT=           0.
 Integral derivatives from FoFDir, PRISM(SPDF).
 Calling FoFJK, ICntrl=      2127 FMM=F ISym2X=0 I1Cent= 0 IOpClX= 0 NMat=1 NMatS=1 NMatT=0.
 FoFCou: FMM=F IPFlag=           0 FMFlag=      100000 FMFlg1=         800
         NFxFlg=           0 DoJE=F BraDBF=F KetDBF=F FulRan=T
         Omega=  0.000000  0.000000  1.000000  0.000000  0.000000 ICntrl=    2127 IOpCl=  0
         NMat0=    1 NMatS0=    1 NMatT0=    0 NMatD0=    1 NMtDS0=    0 NMtDT0=    0
         I1Cent=           0 NGrid=           0.
 Symmetry not used in FoFCou.
 Leave Link  703 at Tue Dec 13 10:15:51 2011, MaxMem=  402653184 cpu:      17.6
 (Enter /share/apps/gaussian/g09/l716.exe)
 Dipole        =-1.17548747D+00 9.67604541D-02-1.65081062D-01
 ***** Axes restored to original set *****
 -------------------------------------------------------------------
 Center     Atomic                   Forces (Hartrees/Bohr)
 Number     Number              X              Y              Z
 -------------------------------------------------------------------
      1        8          -0.003377689    0.000337700    0.000769787
      2        1           0.001495383   -0.003348166    0.003384534
      3        1           0.002276996    0.002541735   -0.005035034
      4        8          -0.002366892   -0.000126672    0.000856741
      5        1          -0.000019269   -0.000185815    0.003459036
      6        1           0.002124640    0.000410786   -0.005165008
      7        8           0.001881101    0.002721242    0.000531444
      8        1          -0.005834046   -0.003110866    0.000176596
      9        1           0.003087060    0.000398292   -0.000570978
     10        8          -0.000351588    0.002658971    0.000522061
     11        1          -0.004504304   -0.000990200   -0.001236543
     12        1           0.004410949   -0.002158819    0.001591569
     13        8           0.002182216   -0.002060176   -0.000654993
     14        1          -0.003521533    0.002734220   -0.003423263
     15        1           0.001777287    0.000140428    0.004224494
     16        8           0.000530737   -0.002066096   -0.002466822
     17        1          -0.002497568   -0.001073566   -0.001948339
     18        1           0.002706520    0.003177001    0.004984719
 -------------------------------------------------------------------
 Cartesian Forces:  Max     0.005834046 RMS     0.002623858
 Leave Link  716 at Tue Dec 13 10:15:51 2011, MaxMem=  402653184 cpu:       1.3
 (Enter /share/apps/gaussian/g09/l103.exe)

 GradGradGradGradGradGradGradGradGradGradGradGradGradGradGradGradGradGrad
 Berny optimization.
 Internal  Forces:  Max     0.005871110 RMS     0.001587702
 Search for a local minimum.
 Step number   1 out of a maximum of  108
 All quantities printed in internal units (Hartrees-Bohrs-Radians)
 RMS Force = .15877D-02 SwitMx=.10000D-02 MixMth= 1
 Mixed Optimization -- RFO/linear search
 Second derivative matrix not updated -- first step.
 ITU=  0
     Eigenvalues ---    0.00611   0.00674   0.00730   0.00795   0.00832
     Eigenvalues ---    0.01058   0.01130   0.01510   0.01594   0.04101
     Eigenvalues ---    0.04186   0.04550   0.04727   0.04873   0.05524
     Eigenvalues ---    0.05632   0.06059   0.06289   0.06605   0.07119
     Eigenvalues ---    0.08179   0.08386   0.09768   0.10203   0.10594
     Eigenvalues ---    0.11215   0.11346   0.14586   0.14850   0.15179
     Eigenvalues ---    0.15508   0.16048   0.16371   0.18113   0.18197
     Eigenvalues ---    0.19163   0.41065   0.41823   0.44646   0.46606
     Eigenvalues ---    0.47440   0.47959   0.49348   0.50086   0.50819
     Eigenvalues ---    0.53776   0.53793   0.53807
 RFO step:  Lambda=-8.07856586D-04 EMin= 6.10607001D-03
 Linear search not attempted -- first point.
 Iteration  1 RMS(Cart)=  0.00781996 RMS(Int)=  0.00006345
 Iteration  2 RMS(Cart)=  0.00005041 RMS(Int)=  0.00002388
 Iteration  3 RMS(Cart)=  0.00000000 RMS(Int)=  0.00002388
 Variable       Old X    -DE/DX   Delta X   Delta X   Delta X     New X
                                 (Linear)    (Quad)   (Total)
    R1        1.85346  -0.00433   0.00000  -0.00835  -0.00835   1.84512
    R2        1.86779  -0.00489   0.00000  -0.01014  -0.01014   1.85765
    R3        3.13044   0.00049   0.00000   0.00547   0.00547   3.13592
    R4        3.54554   0.00038   0.00000   0.00730   0.00730   3.55284
    R5        3.48869   0.00085   0.00000   0.01404   0.01403   3.50273
    R6        1.82921  -0.00289   0.00000  -0.00537  -0.00537   1.82384
    R7        1.86561  -0.00510   0.00000  -0.01006  -0.01006   1.85555
    R8        3.93013   0.00034   0.00000   0.01089   0.01089   3.94102
    R9        3.40485   0.00031   0.00000   0.00384   0.00385   3.40870
   R10        1.90572  -0.00587   0.00000  -0.01271  -0.01272   1.89300
   R11        1.82936  -0.00254   0.00000  -0.00472  -0.00472   1.82464
   R12        3.55187   0.00032   0.00000   0.00660   0.00659   3.55846
   R13        3.12475   0.00046   0.00000   0.00551   0.00551   3.13026
   R14        1.84425  -0.00404   0.00000  -0.00769  -0.00769   1.83656
   R15        1.85222  -0.00442   0.00000  -0.00861  -0.00861   1.84361
   R16        3.89818   0.00036   0.00000   0.01052   0.01052   3.90870
   R17        1.87058  -0.00486   0.00000  -0.00982  -0.00982   1.86075
   R18        1.84420  -0.00386   0.00000  -0.00727  -0.00727   1.83693
   R19        3.32611   0.00049   0.00000   0.00697   0.00697   3.33308
   R20        1.82908  -0.00275   0.00000  -0.00510  -0.00510   1.82398
   R21        1.90329  -0.00575   0.00000  -0.01240  -0.01240   1.89088
    A1        1.79392  -0.00083   0.00000  -0.01027  -0.01028   1.78364
    A2        1.78856  -0.00063   0.00000  -0.00221  -0.00222   1.78634
    A3        1.54507   0.00032   0.00000   0.00097   0.00096   1.54603
    A4        2.82402   0.00036   0.00000   0.00088   0.00088   2.82491
    A5        2.64728   0.00042   0.00000   0.00223   0.00220   2.64948
    A6        2.13599   0.00020   0.00000   0.00442   0.00435   2.14034
    A7        1.77299   0.00072   0.00000   0.00419   0.00420   1.77718
    A8        1.68410  -0.00001   0.00000  -0.00023  -0.00026   1.68384
    A9        1.84581  -0.00116   0.00000  -0.01781  -0.01777   1.82804
   A10        2.35728   0.00018   0.00000   0.00512   0.00502   2.36230
   A11        1.48694   0.00004   0.00000  -0.00090  -0.00091   1.48603
   A12        2.64088  -0.00071   0.00000  -0.00078  -0.00079   2.64009
   A13        1.50117   0.00070   0.00000   0.00134   0.00135   1.50252
   A14        2.23121   0.00039   0.00000   0.00546   0.00540   2.23661
   A15        1.73017  -0.00072   0.00000  -0.00199  -0.00201   1.72817
   A16        1.85138  -0.00142   0.00000  -0.01786  -0.01782   1.83356
   A17        1.79082   0.00050   0.00000   0.00484   0.00483   1.79565
   A18        2.19159   0.00059   0.00000   0.00474   0.00469   2.19628
   A19        2.79795   0.00002   0.00000   0.00153   0.00152   2.79947
   A20        1.54805  -0.00054   0.00000  -0.00066  -0.00068   1.54737
   A21        1.77113   0.00017   0.00000   0.00056   0.00055   1.77169
   A22        1.78397  -0.00078   0.00000  -0.01248  -0.01247   1.77149
   A23        2.45767  -0.00005   0.00000   0.00103   0.00102   2.45869
   A24        2.82185   0.00045   0.00000   0.00161   0.00160   2.82345
   A25        1.77536  -0.00027   0.00000  -0.00209  -0.00209   1.77326
   A26        1.63458   0.00003   0.00000   0.00077   0.00075   1.63534
   A27        1.79273  -0.00086   0.00000  -0.01232  -0.01231   1.78042
   A28        2.84039   0.00036   0.00000   0.00094   0.00094   2.84134
   A29        2.39164  -0.00017   0.00000   0.00012   0.00010   2.39173
   A30        1.75858  -0.00022   0.00000   0.00035   0.00033   1.75891
   A31        2.25225   0.00019   0.00000   0.00404   0.00396   2.25621
   A32        1.40882   0.00014   0.00000   0.00049   0.00049   1.40931
   A33        2.18519   0.00029   0.00000   0.00346   0.00339   2.18859
   A34        1.79905   0.00098   0.00000   0.00507   0.00505   1.80410
   A35        1.84660  -0.00142   0.00000  -0.01900  -0.01897   1.82763
   A36        2.83329  -0.00025   0.00000   0.00139   0.00137   2.83466
    D1        0.94950   0.00027   0.00000   0.01272   0.01271   0.96222
    D2       -0.64449   0.00028   0.00000   0.01455   0.01453  -0.62996
    D3       -1.47356  -0.00013   0.00000  -0.01218  -0.01217  -1.48573
    D4        0.31472  -0.00073   0.00000  -0.01447  -0.01447   0.30025
    D5        1.34533  -0.00051   0.00000  -0.00838  -0.00838   1.33696
    D6       -0.44831   0.00028   0.00000   0.00198   0.00200  -0.44632
    D7       -2.83300   0.00053   0.00000   0.00821   0.00820  -2.82480
    D8       -0.78616  -0.00029   0.00000  -0.00921  -0.00921  -0.79537
    D9        0.72187  -0.00018   0.00000  -0.00975  -0.00977   0.71210
   D10       -0.49252   0.00037   0.00000   0.01820   0.01820  -0.47432
   D11        1.29119  -0.00053   0.00000   0.00534   0.00534   1.29654
   D12        1.20512  -0.00026   0.00000  -0.00422  -0.00424   1.20088
   D13       -2.83097  -0.00022   0.00000  -0.00566  -0.00571  -2.83668
   D14       -0.46442  -0.00021   0.00000  -0.00355  -0.00353  -0.46795
   D15       -1.29441  -0.00032   0.00000  -0.01382  -0.01382  -1.30823
   D16        2.34802  -0.00117   0.00000  -0.03496  -0.03502   2.31300
   D17        0.47087   0.00041   0.00000  -0.00967  -0.00966   0.46121
   D18        0.45686   0.00049   0.00000   0.00741   0.00739   0.46426
   D19        2.32955  -0.00071   0.00000  -0.01342  -0.01346   2.31609
   D20       -1.32590  -0.00014   0.00000   0.00223   0.00223  -1.32367
   D21       -0.32104   0.00036   0.00000  -0.00097  -0.00097  -0.32200
   D22       -2.56040  -0.00007   0.00000  -0.00464  -0.00466  -2.56506
   D23        1.39772  -0.00025   0.00000  -0.00289  -0.00290   1.39481
   D24        0.79912   0.00026   0.00000  -0.00764  -0.00765   0.79147
   D25       -0.73541  -0.00039   0.00000  -0.00933  -0.00934  -0.74475
   D26       -2.83997   0.00073   0.00000   0.00788   0.00789  -2.83208
   D27       -1.37747   0.00060   0.00000   0.00687   0.00686  -1.37061
   D28        0.43416  -0.00031   0.00000  -0.00586  -0.00586   0.42830
   D29        0.47308  -0.00003   0.00000  -0.01080  -0.01078   0.46230
   D30       -1.29779  -0.00007   0.00000  -0.01098  -0.01097  -1.30875
   D31       -0.66530   0.00086   0.00000   0.01344   0.01345  -0.65185
   D32        0.92571   0.00018   0.00000   0.01028   0.01027   0.93598
   D33        1.25862   0.00045   0.00000   0.01234   0.01233   1.27095
   D34       -2.31134   0.00109   0.00000   0.03111   0.03115  -2.28019
   D35       -0.51592  -0.00061   0.00000   0.00710   0.00712  -0.50880
   D36        0.62542  -0.00037   0.00000  -0.01375  -0.01373   0.61169
   D37       -1.05917  -0.00013   0.00000  -0.01115  -0.01115  -1.07032
   D38       -0.35916   0.00026   0.00000   0.01239   0.01237  -0.34679
   D39        1.43661  -0.00012   0.00000   0.00898   0.00897   1.44558
   D40       -0.73599   0.00011   0.00000   0.01221   0.01223  -0.72376
   D41        2.81147  -0.00048   0.00000  -0.00582  -0.00582   2.80565
   D42        0.71011   0.00037   0.00000   0.01362   0.01363   0.72373
   D43        0.44225  -0.00019   0.00000   0.00048   0.00047   0.44273
   D44       -1.28542   0.00013   0.00000   0.00067   0.00068  -1.28474
   D45        2.67811   0.00002   0.00000   0.00452   0.00455   2.68265
         Item               Value     Threshold  Converged?
 Maximum Force            0.005871     0.000450     NO 
 RMS     Force            0.001588     0.000300     NO 
 Maximum Displacement     0.025843     0.001800     NO 
 RMS     Displacement     0.007849     0.001200     NO 
 Predicted change in Energy=-4.083024D-04
 GradGradGradGradGradGradGradGradGradGradGradGradGradGradGradGradGradGrad

 Leave Link  103 at Tue Dec 13 10:15:51 2011, MaxMem=  402653184 cpu:       1.3
 (Enter /share/apps/gaussian/g09/l202.exe)
                          Input orientation:                          
 ---------------------------------------------------------------------
 Center     Atomic      Atomic             Coordinates (Angstroms)
 Number     Number       Type             X           Y           Z
 ---------------------------------------------------------------------
      1          8           0        0.934802   -1.630864   -1.013542
      2          1           0        0.346826   -1.043421   -1.525929
      3          1           0        0.347316   -1.926896   -0.283088
      4          8           0       -0.835219    0.345916   -1.981147
      5          1           0       -1.371036    0.331349   -2.783748
      6          1           0       -1.485107    0.306110   -1.246150
      7          8           0       -1.925194    0.523755    0.489553
      8          1           0       -1.196296    1.210348    0.517249
      9          1           0       -2.700632    0.966220    0.857285
     10          8           0       -0.426395   -1.698413    1.385703
     11          1           0        0.344052   -1.165625    1.644676
     12          1           0       -1.088213   -1.006025    1.200287
     13          8           0        0.157513    2.066820    0.095909
     14          1           0        0.875029    1.470642    0.411051
     15          1           0        0.093445    1.826995   -0.843922
     16          8           0        1.813854    0.035335    0.822705
     17          1           0        2.769021    0.012347    0.959656
     18          1           0        1.653483   -0.576271    0.047176
 ---------------------------------------------------------------------
                    Distance matrix (angstroms):
                    1          2          3          4          5
     1  O    0.000000
     2  H    0.976394   0.000000
     3  H    0.983025   1.524855   0.000000
     4  O    2.824339   1.880083   3.073673   0.000000
     5  H    3.507249   2.534394   3.782288   0.965132   0.000000
     6  H    3.108366   2.292486   3.044927   0.981916   1.542030
     7  O    3.883460   3.417644   3.430302   2.706295   3.325449
     8  H    3.867478   3.411052   3.586862   2.668258   3.420490
     9  H    4.843679   4.359515   4.354373   3.452714   3.927850
    10  O    2.759312   3.082935   1.853564   3.960063   4.732505
    11  H    2.762527   3.172960   2.072636   4.101466   4.979296
    12  H    3.063341   3.081070   2.260343   3.466017   4.212018
    13  O    3.938010   3.512804   4.016146   2.874228   3.693338
    14  H    3.413558   3.217359   3.507645   3.148423   4.068112
    15  H    3.562786   2.961186   3.804035   2.085496   2.853872
    16  O    2.630733   2.971862   2.687725   3.869837   4.820545
    17  H    3.155632   3.627644   3.342115   4.663704   5.590609
    18  H    1.659455   2.097675   1.907704   3.340384   4.240945
                    6          7          8          9         10
     6  H    0.000000
     7  O    1.803805   0.000000
     8  H    2.002657   1.001733   0.000000
     9  H    2.517476   0.965560   1.561490   0.000000
    10  O    3.473563   2.826220   3.131749   3.542831   0.000000
    11  H    3.724070   3.055780   3.047787   3.799322   0.971864
    12  H    2.804332   1.883058   2.321752   2.570466   0.975594
    13  O    2.756705   2.621769   1.656463   3.155948   4.022623
    14  H    3.110096   2.957027   2.090315   3.638533   3.561820
    15  H    2.228611   2.747998   1.973948   3.382588   4.203566
    16  O    3.903412   3.785502   3.245760   4.609591   2.888177
    17  H    4.800988   4.745334   4.165893   5.553149   3.649507
    18  H    3.507426   3.769972   3.396206   4.689763   2.716017
                   11         12         13         14         15
    11  H    0.000000
    12  H    1.508090   0.000000
    13  O    3.589174   3.494833   0.000000
    14  H    2.958660   3.257467   0.984669   0.000000
    15  H    3.900217   3.687968   0.972061   1.520795   0.000000
    16  O    2.068395   3.106282   2.720042   1.763790   2.991236
    17  H    2.781608   3.996653   3.433204   2.452508   3.701965
    18  H    2.148011   3.005203   3.037471   2.219966   3.000577
                   16         17         18
    16  O    0.000000
    17  H    0.965209   0.000000
    18  H    1.000613   1.556765   0.000000
 Stoichiometry    H12O6
 Framework group  C1[X(H12O6)]
 Deg. of freedom    48
 Full point group                 C1      NOp   1
 Largest Abelian subgroup         C1      NOp   1
 Largest concise Abelian subgroup C1      NOp   1
                         Standard orientation:                         
 ---------------------------------------------------------------------
 Center     Atomic      Atomic             Coordinates (Angstroms)
 Number     Number       Type             X           Y           Z
 ---------------------------------------------------------------------
      1          8           0        1.420085   -0.919831   -1.263494
      2          1           0        0.467577   -1.012358   -1.457175
      3          1           0        1.472958   -1.225472   -0.330689
      4          8           0       -1.401964   -0.845292   -1.349390
      5          1           0       -2.005275   -1.449340   -1.799525
      6          1           0       -1.562840   -0.998237   -0.392893
      7          8           0       -1.435340   -0.490897    1.333393
      8          1           0       -1.414198    0.447885    0.984522
      9          1           0       -2.126125   -0.492256    2.008019
     10          8           0        1.352086   -0.928695    1.494965
     11          1           0        1.580352    0.002441    1.335598
     12          1           0        0.386071   -0.873527    1.619686
     13          8           0       -1.244004    1.719986   -0.062695
     14          1           0       -0.264602    1.813096   -0.103617
     15          1           0       -1.428794    1.179091   -0.848944
     16          8           0        1.462195    1.454898   -0.132280
     17          1           0        2.150052    2.044576   -0.465089
     18          1           0        1.520368    0.642749   -0.713879
 ---------------------------------------------------------------------
 Rotational constants (GHZ):      1.8350251      1.4510054      1.4351669
 Leave Link  202 at Tue Dec 13 10:15:52 2011, MaxMem=  402653184 cpu:       0.1
 (Enter /share/apps/gaussian/g09/l301.exe)
 Standard basis: CC-pVDZ (5D, 7F)
 Ernie: Thresh=  0.10000D-02 Tol=  0.10000D-05 Strict=F.
 Ernie:  12 primitive shells out of 192 were deleted.
 There are   144 symmetry adapted basis functions of A   symmetry.
 Integral buffers will be    131072 words long.
 Raffenetti 1 integral format.
 Two-electron integral symmetry is turned on.
   144 basis functions,   282 primitive gaussians,   150 cartesian basis functions
    30 alpha electrons       30 beta electrons
       nuclear repulsion energy       311.0429900553 Hartrees.
 IExCor=    0 DFT=F Ex=HF Corr=None ExCW=0 ScaHFX=  1.000000
 ScaDFX=  1.000000  1.000000  1.000000  1.000000 ScalE2=  1.000000  1.000000
 IRadAn=      0 IRanWt=     -1 IRanGd=            0 ICorTp=0
 NAtoms=   18 NActive=   18 NUniq=   18 SFac= 1.00D+00 NAtFMM=   50 NAOKFM=F Big=F
 Leave Link  301 at Tue Dec 13 10:15:52 2011, MaxMem=  402653184 cpu:       0.9
 (Enter /share/apps/gaussian/g09/l302.exe)
 NPDir=0 NMtPBC=     1 NCelOv=     1 NCel=       1 NClECP=     1 NCelD=      1
         NCelK=      1 NCelE2=     1 NClLst=     1 CellRange=     0.0.
 One-electron integrals computed using PRISM.
 NBasis=   144 RedAO= T  NBF=   144
 NBsUse=   144 1.00D-06 NBFU=   144
 Leave Link  302 at Tue Dec 13 10:15:52 2011, MaxMem=  402653184 cpu:       4.1
 (Enter /share/apps/gaussian/g09/l303.exe)
 DipDrv:  MaxL=1.
 Leave Link  303 at Tue Dec 13 10:15:52 2011, MaxMem=  402653184 cpu:       1.3
 (Enter /share/apps/gaussian/g09/l401.exe)
 Initial guess read from the read-write file.
 B after Tr=     0.000000    0.000000    0.000000
         Rot=    1.000000    0.000000    0.000000    0.000000 Ang=   0.00 deg.
 Guess basis will be translated and rotated to current coordinates.
 Initial guess orbital symmetries:
       Occupied  (A) (A) (A) (A) (A) (A) (A) (A) (A) (A) (A) (A)
                 (A) (A) (A) (A) (A) (A) (A) (A) (A) (A) (A) (A)
                 (A) (A) (A) (A) (A) (A)
       Virtual   (A) (A) (A) (A) (A) (A) (A) (A) (A) (A) (A) (A)
                 (A) (A) (A) (A) (A) (A) (A) (A) (A) (A) (A) (A)
                 (A) (A) (A) (A) (A) (A) (A) (A) (A) (A) (A) (A)
                 (A) (A) (A) (A) (A) (A) (A) (A) (A) (A) (A) (A)
                 (A) (A) (A) (A) (A) (A) (A) (A) (A) (A) (A) (A)
                 (A) (A) (A) (A) (A) (A) (A) (A) (A) (A) (A) (A)
                 (A) (A) (A) (A) (A) (A) (A) (A) (A) (A) (A) (A)
                 (A) (A) (A) (A) (A) (A) (A) (A) (A) (A) (A) (A)
                 (A) (A) (A) (A) (A) (A) (A) (A) (A) (A) (A) (A)
                 (A) (A) (A) (A) (A) (A)
 The electronic state of the initial guess is 1-A.
 Generating alternative initial guess.
 Harris functional with IExCor=  205 diagonalized for initial guess.
 ExpMin= 1.22D-01 ExpMax= 1.17D+04 ExpMxC= 4.01D+02 IAcc=1 IRadAn=         1 AccDes= 0.00D+00
 HarFok:  IExCor=  205 AccDes= 0.00D+00 IRadAn=         1 IDoV= 1
 ScaDFX=  1.000000  1.000000  1.000000  1.000000
 FoFCou: FMM=F IPFlag=           0 FMFlag=      100000 FMFlg1=           0
         NFxFlg=           0 DoJE=T BraDBF=F KetDBF=T FulRan=T
         Omega=  0.000000  0.000000  1.000000  0.000000  0.000000 ICntrl=     500 IOpCl=  0
         NMat0=    1 NMatS0=    1 NMatT0=    0 NMatD0=    1 NMtDS0=    0 NMtDT0=    0
         I1Cent=           4 NGrid=           0.
 Petite list used in FoFCou.
 Harris En= -456.727912837542    
 Leave Link  401 at Tue Dec 13 10:15:53 2011, MaxMem=  402653184 cpu:       8.1
 (Enter /share/apps/gaussian/g09/l502.exe)
 Closed shell SCF:
 Requested convergence on RMS density matrix=1.00D-08 within  50 cycles.
 Requested convergence on MAX density matrix=1.00D-06.
 Requested convergence on             energy=1.00D-06.
 No special actions if energy rises.
 Using DIIS extrapolation, IDIIS=  1040.
 Integral symmetry usage will be decided dynamically.
 Keep R1 ints in memory in canonical form, NReq=65929813.
 IEnd=       74924 IEndB=       74924 NGot=   402653184 MDV=   338470008
 LenX=   338470008 LenY=   338447067
 Symmetry not used in FoFDir.
 MinBra= 0 MaxBra= 2 Meth= 1.
 IRaf=       0 NMat=   1 IRICut=       1 DoRegI=T DoRafI=F ISym2E= 0 JSym2E=0.

 Cycle   1  Pass 1  IDiag  1:
 E= -456.226689432862    
 DIIS: error= 8.85D-04 at cycle   1 NSaved=   1.
 NSaved= 1 IEnMin= 1 EnMin= -456.226689432862     IErMin= 1 ErrMin= 8.85D-04
 ErrMax= 8.85D-04 EMaxC= 1.00D-01 BMatC= 3.77D-04 BMatP= 3.77D-04
 IDIUse=3 WtCom= 9.91D-01 WtEn= 8.85D-03
 Coeff-Com:  0.100D+01
 Coeff-En:   0.100D+01
 Coeff:      0.100D+01
 Gap=     0.626 Goal=   None    Shift=    0.000
 RMSDP=1.61D-04 MaxDP=3.69D-03              OVMax= 2.63D-03

 Cycle   2  Pass 1  IDiag  1:
 E= -456.227103296719     Delta-E=       -0.000413863857 Rises=F Damp=F
 DIIS: error= 2.83D-04 at cycle   2 NSaved=   2.
 NSaved= 2 IEnMin= 2 EnMin= -456.227103296719     IErMin= 2 ErrMin= 2.83D-04
 ErrMax= 2.83D-04 EMaxC= 1.00D-01 BMatC= 1.90D-05 BMatP= 3.77D-04
 IDIUse=3 WtCom= 9.97D-01 WtEn= 2.83D-03
 Coeff-Com: -0.195D+00 0.120D+01
 Coeff-En:   0.000D+00 0.100D+01
 Coeff:     -0.195D+00 0.119D+01
 Gap=     0.625 Goal=   None    Shift=    0.000
 RMSDP=4.35D-05 MaxDP=1.07D-03 DE=-4.14D-04 OVMax= 1.11D-03

 Cycle   3  Pass 1  IDiag  1:
 E= -456.227133454280     Delta-E=       -0.000030157561 Rises=F Damp=F
 DIIS: error= 7.35D-05 at cycle   3 NSaved=   3.
 NSaved= 3 IEnMin= 3 EnMin= -456.227133454280     IErMin= 3 ErrMin= 7.35D-05
 ErrMax= 7.35D-05 EMaxC= 1.00D-01 BMatC= 1.44D-06 BMatP= 1.90D-05
 IDIUse=1 WtCom= 1.00D+00 WtEn= 0.00D+00
 Coeff-Com: -0.450D-01 0.146D+00 0.899D+00
 Coeff:     -0.450D-01 0.146D+00 0.899D+00
 Gap=     0.625 Goal=   None    Shift=    0.000
 RMSDP=9.11D-06 MaxDP=1.73D-04 DE=-3.02D-05 OVMax= 2.99D-04

 Cycle   4  Pass 1  IDiag  1:
 E= -456.227135410512     Delta-E=       -0.000001956232 Rises=F Damp=F
 DIIS: error= 3.71D-05 at cycle   4 NSaved=   4.
 NSaved= 4 IEnMin= 4 EnMin= -456.227135410512     IErMin= 4 ErrMin= 3.71D-05
 ErrMax= 3.71D-05 EMaxC= 1.00D-01 BMatC= 2.23D-07 BMatP= 1.44D-06
 IDIUse=1 WtCom= 1.00D+00 WtEn= 0.00D+00
 Coeff-Com:  0.203D-01-0.140D+00 0.861D-01 0.103D+01
 Coeff:      0.203D-01-0.140D+00 0.861D-01 0.103D+01
 Gap=     0.625 Goal=   None    Shift=    0.000
 RMSDP=4.73D-06 MaxDP=9.43D-05 DE=-1.96D-06 OVMax= 1.78D-04

 Cycle   5  Pass 1  IDiag  1:
 E= -456.227135817338     Delta-E=       -0.000000406826 Rises=F Damp=F
 DIIS: error= 7.45D-06 at cycle   5 NSaved=   5.
 NSaved= 5 IEnMin= 5 EnMin= -456.227135817338     IErMin= 5 ErrMin= 7.45D-06
 ErrMax= 7.45D-06 EMaxC= 1.00D-01 BMatC= 1.33D-08 BMatP= 2.23D-07
 IDIUse=1 WtCom= 1.00D+00 WtEn= 0.00D+00
 Coeff-Com:  0.196D-02-0.448D-03-0.803D-01-0.820D-01 0.116D+01
 Coeff:      0.196D-02-0.448D-03-0.803D-01-0.820D-01 0.116D+01
 Gap=     0.625 Goal=   None    Shift=    0.000
 RMSDP=1.69D-06 MaxDP=4.31D-05 DE=-4.07D-07 OVMax= 6.97D-05

 Cycle   6  Pass 1  IDiag  1:
 E= -456.227135852666     Delta-E=       -0.000000035328 Rises=F Damp=F
 DIIS: error= 1.53D-06 at cycle   6 NSaved=   6.
 NSaved= 6 IEnMin= 6 EnMin= -456.227135852666     IErMin= 6 ErrMin= 1.53D-06
 ErrMax= 1.53D-06 EMaxC= 1.00D-01 BMatC= 8.27D-10 BMatP= 1.33D-08
 IDIUse=1 WtCom= 1.00D+00 WtEn= 0.00D+00
 Coeff-Com: -0.171D-02 0.922D-02 0.107D-01-0.507D-01-0.245D+00 0.128D+01
 Coeff:     -0.171D-02 0.922D-02 0.107D-01-0.507D-01-0.245D+00 0.128D+01
 Gap=     0.625 Goal=   None    Shift=    0.000
 RMSDP=4.85D-07 MaxDP=1.42D-05 DE=-3.53D-08 OVMax= 2.12D-05

 Cycle   7  Pass 1  IDiag  1:
 E= -456.227135855017     Delta-E=       -0.000000002350 Rises=F Damp=F
 DIIS: error= 3.21D-07 at cycle   7 NSaved=   7.
 NSaved= 7 IEnMin= 7 EnMin= -456.227135855017     IErMin= 7 ErrMin= 3.21D-07
 ErrMax= 3.21D-07 EMaxC= 1.00D-01 BMatC= 4.79D-11 BMatP= 8.27D-10
 IDIUse=1 WtCom= 1.00D+00 WtEn= 0.00D+00
 Coeff-Com: -0.245D-03 0.902D-03 0.424D-02-0.109D-02-0.713D-01 0.117D+00
 Coeff-Com:  0.950D+00
 Coeff:     -0.245D-03 0.902D-03 0.424D-02-0.109D-02-0.713D-01 0.117D+00
 Coeff:      0.950D+00
 Gap=     0.625 Goal=   None    Shift=    0.000
 RMSDP=6.98D-08 MaxDP=1.98D-06 DE=-2.35D-09 OVMax= 3.43D-06

 Cycle   8  Pass 1  IDiag  1:
 E= -456.227135855106     Delta-E=       -0.000000000090 Rises=F Damp=F
 DIIS: error= 1.24D-07 at cycle   8 NSaved=   8.
 NSaved= 8 IEnMin= 8 EnMin= -456.227135855106     IErMin= 8 ErrMin= 1.24D-07
 ErrMax= 1.24D-07 EMaxC= 1.00D-01 BMatC= 7.71D-12 BMatP= 4.79D-11
 IDIUse=1 WtCom= 1.00D+00 WtEn= 0.00D+00
 Coeff-Com:  0.163D-03-0.950D-03-0.571D-03 0.597D-02 0.171D-01-0.135D+00
 Coeff-Com:  0.170D+00 0.944D+00
 Coeff:      0.163D-03-0.950D-03-0.571D-03 0.597D-02 0.171D-01-0.135D+00
 Coeff:      0.170D+00 0.944D+00
 Gap=     0.625 Goal=   None    Shift=    0.000
 RMSDP=2.69D-08 MaxDP=7.78D-07 DE=-8.99D-11 OVMax= 1.30D-06

 Cycle   9  Pass 1  IDiag  1:
 E= -456.227135855116     Delta-E=       -0.000000000009 Rises=F Damp=F
 DIIS: error= 4.48D-08 at cycle   9 NSaved=   9.
 NSaved= 9 IEnMin= 9 EnMin= -456.227135855116     IErMin= 9 ErrMin= 4.48D-08
 ErrMax= 4.48D-08 EMaxC= 1.00D-01 BMatC= 4.75D-13 BMatP= 7.71D-12
 IDIUse=1 WtCom= 1.00D+00 WtEn= 0.00D+00
 Coeff-Com:  0.270D-04-0.109D-03-0.394D-03 0.224D-03 0.687D-02-0.142D-01
 Coeff-Com: -0.832D-01 0.279D-01 0.106D+01
 Coeff:      0.270D-04-0.109D-03-0.394D-03 0.224D-03 0.687D-02-0.142D-01
 Coeff:     -0.832D-01 0.279D-01 0.106D+01
 Gap=     0.625 Goal=   None    Shift=    0.000
 RMSDP=8.56D-09 MaxDP=2.57D-07 DE=-9.44D-12 OVMax= 4.51D-07

 SCF Done:  E(RHF) =  -456.227135855     A.U. after    9 cycles
             Convg  =    0.8557D-08             -V/T =  2.0011
 KE= 4.557434693677D+02 PE=-1.705928336142D+03 EE= 4.829147408634D+02
 Leave Link  502 at Tue Dec 13 10:15:57 2011, MaxMem=  402653184 cpu:      70.4
 (Enter /share/apps/gaussian/g09/l801.exe)
 ExpMin= 1.22D-01 ExpMax= 1.17D+04 ExpMxC= 4.01D+02 IAcc=1 IRadAn=         1 AccDes= 0.00D+00
 HarFok:  IExCor=  205 AccDes= 0.00D+00 IRadAn=         1 IDoV=-2
 ScaDFX=  1.000000  1.000000  1.000000  1.000000
 Largest valence mixing into a core orbital is  7.33D-05
 Largest core mixing into a valence orbital is  2.42D-05
 Range of M.O.s used for correlation:     7   144
 NBasis=   144 NAE=    30 NBE=    30 NFC=     6 NFV=     0
 NROrb=    138 NOA=    24 NOB=    24 NVA=   114 NVB=   114
 Leave Link  801 at Tue Dec 13 10:15:57 2011, MaxMem=  402653184 cpu:       1.7
 (Enter /share/apps/gaussian/g09/l906.exe)
 Frozen-core derivative calculation, NFC=   6 NFV=   0.
 FulOut=F Deriv=T AODrv=T NAtomX=    18
   MMem=         238  MDisk=          24 MDiskD=          24
  W3Min=      648000 MinDsk=      920825 NBas6D=         150
 NBas2D=       11487    NTT=       11325    LW2=     2040000
    MDV=   402304352 MDiskM=       37065 NBas2p=       11206
 Fully direct method using O(ONN) memory.
 IMap=   1   2   3   4   5   6   7   8   9  10  11  12  13  14  15  16  17  18  19  20
 IMap=  21  22  23  24  25  26  27  28  29  30
 JobTyp=1 Pass  1:  I=   7 to  16 NPSUse= 16 ParTrn=T ParDer=T DoDerP=T.
 JobTyp=1 Pass  2:  I=  17 to  26 NPSUse= 16 ParTrn=T ParDer=T DoDerP=T.
 JobTyp=1 Pass  3:  I=  27 to  30 NPSUse= 16 ParTrn=T ParDer=T DoDerP=T.
 Spin components of T(2) and E(2):
     alpha-alpha T2 =       0.4145060287D-01 E2=     -0.1623231467D+00
     alpha-beta  T2 =       0.2351325788D+00 E2=     -0.9304931230D+00
     beta-beta   T2 =       0.4145060287D-01 E2=     -0.1623231467D+00
 The integrals were generated   3 times.
 ANorm=    0.1148056525D+01
 E2 =    -0.1255139416D+01 EUMP2 =    -0.45748227527141D+03
 Leave Link  906 at Tue Dec 13 10:16:55 2011, MaxMem=  402653184 cpu:     925.4
 (Enter /share/apps/gaussian/g09/l1002.exe)
 Minotr:  Closed shell wavefunction.
          Computing MP2/KS-MP2 derivatives.
          Using Z-Vector for PSCF gradient.
          Skipping F1 and S1 gradient terms here.
          IDoAtm=111111111111111111
          Frozen-core window.
          Direct CPHF calculation.
          Differentiating once with respect to electric field.
                with respect to dipole field.
          Differentiating once with respect to nuclear coordinates.
          Requested convergence is 1.0D-10 RMS, and 1.0D-09 maximum.
          NewPWx=F KeepS1=T KeepF1=T KeepIn=T MapXYZ=F SortEE=F KeepMc=T.
          MDV=     402653000 using IRadAn=       0.
          Keep R1 ints in memory in canonical form, NReq=64954950.
 Symmetry not used in FoFDir.
 MinBra= 0 MaxBra= 2 Meth= 1.
 IRaf=       0 NMat=   1 IRICut=       1 DoRegI=T DoRafI=F ISym2E= 0 JSym2E=0.
          Solving linear equations separately, MaxMat=       0.
          There are     1 degrees of freedom in the 1st order CPHF.  IDoFFX=0.
[...]
 .0088744,-0.0115108,0.2862815,0.2751097,-0.0263917,-0.1270017,-0.01914
 72,0.2947201,0.0514915,-0.1437214,0.0539292,0.613228,-0.8436504,-0.094
 8988,0.0554881,-0.1551374,-0.6714168,0.11605,0.0145768,0.0878884,-0.76
 86281,0.7189195,0.3048695,-0.0830683,0.3085756,0.430291,-0.0714113,-0.
 0959961,-0.0773752,0.3012607,0.2907468,0.0003491,0.0007556,0.0688434,0
 .2242554,-0.0402892,0.0284298,-0.0197743,0.2821573,-0.6682268,0.043460
 4,0.0982391,0.0789508,-0.5326451,0.0347362,0.1129414,0.0982773,-0.8065
 255,0.3432466,0.0602101,-0.025219,0.0231492,0.2434879,-0.0551054,-0.05
 17899,-0.0720149,0.3510694,0.3874263,-0.1318223,0.0079477,-0.1234427,0
 .4040629,-0.0825838,0.0347608,-0.1036566,0.3128959,-0.8889757,-0.12051
 49,-0.0450679,-0.0993235,-0.7637015,0.1035672,-0.0147315,0.1353659,-0.
 5387906,0.4847358,-0.1695502,0.1011363,-0.2036865,0.5211083,-0.0957945
 ,0.1384681,-0.100514,0.2849345,0.2902367,0.084216,0.0745953,0.0713137,
 0.3504811,-0.0062451,0.024988,-0.008501,0.3001459,-0.6343449,-0.047965
 ,-0.1106096,-0.0806155,-0.8519923,-0.0439174,-0.181849,-0.0529164,-0.7
 696915,0.2058182,0.0102936,-0.0017537,0.0565236,0.2719877,-0.0097885,0
 .0587338,-0.0161966,0.3061319,0.3503656,0.18144,0.1843025,0.1854589,0.
 5114526,0.2648121,0.1891768,0.2695854,0.5667662\Polar=41.935012,-1.183
 7322,34.4894541,1.4702283,0.4864707,38.1621086\PG=C01 [X(H12O6)]\NImag
 =0\\0.42511491,-0.09685161,0.26577203,-0.05603993,-0.25906417,0.440988
 57,-0.21355390,0.18009912,-0.15356923,0.20747962,0.15056877,-0.1843301
 2,0.15706215,-0.16071315,0.19381869,-0.11115956,0.14282638,-0.15008579
 ,0.13542551,-0.16211371,0.17879381,-0.20318659,-0.08629243,0.20713203,
 0.01422828,0.01277582,-0.02426194,0.19989324,-0.05519386,-0.06668236,0
 .10266648,-0.01886534,-0.01031341,0.02265900,0.07712926,0.08777801,0.1
 6604150,0.11586509,-0.26163220,0.01805729,0.00947016,-0.01998938,-0.17
 853796,-0.12416365,0.27586104,-0.00325679,0.00676517,-0.00571202,-0.00
 150309,-0.00178090,0.00220524,-0.00205723,0.00017115,0.00130757,0.4507
 8459,0.00795866,-0.00203903,0.00664713,-0.00427643,-0.00480958,-0.0023
 2505,0.00082809,0.00021350,-0.00257538,0.02282626,0.02481044,-0.004641
 55,0.00482246,0.00289957,0.00091618,-0.00066029,-0.00876229,0.00073798
 ,-0.00122374,-0.00001303,0.01611131,0.01112723,0.67923328,-0.00019291,
 0.00112311,0.00051576,-0.00071727,-0.00153273,-0.00208531,-0.00007631,
 -0.00000976,-0.00000506,-0.20315600,-0.01602116,-0.25692435,0.19250110
 ,0.00094261,-0.00218810,-0.00040460,-0.00039777,0.00259797,0.00236891,
 0.00010636,0.00026332,0.00009214,-0.01598060,-0.00466525,-0.02291947,0
 .01486507,0.00437122,0.00119892,-0.00110852,0.00077469,-0.00216417,0.0
 0210882,-0.00091722,-0.00004382,0.00010521,-0.00021058,-0.19835587,-0.
 01827562,-0.37236821,0.22878901,0.02046793,0.40099885,0.00147343,-0.00
 120269,0.00022111,-0.00316149,0.00177072,0.00155730,0.00021902,0.00073
 820,-0.00084976,-0.24210826,-0.01080532,0.23628148,0.01350588,0.000457
 63,-0.03014524,0.23699909,-0.00175771,-0.00037505,0.00020774,0.0029501
 6,0.00016533,-0.00256568,0.00078633,-0.00060961,0.00071279,-0.01204781
 ,-0.01281268,0.01291007,0.00081612,-0.00075547,-0.00236635,0.01168415,
 0.02087484,-0.00129732,0.00148006,-0.00382639,0.00333383,-0.00406929,0
 .00390179,-0.00116511,0.00049028,0.00198038,0.17778545,0.00870576,-0.2
 8063613,0.02776677,0.00161702,-0.02678898,-0.20210359,-0.00902395,0.30
 433547,0.00016501,0.00117249,0.00099563,-0.00008629,-0.00061503,-0.000
 55072,-0.00003084,-0.00075823,-0.00063824,0.00296568,0.00080355,0.0081
 1708,-0.00164686,0.00008472,0.00172057,-0.00790647,0.00007907,-0.00386
 449,0.60588692,0.00122804,0.00115900,-0.00103894,-0.00019303,-0.000615
 11,0.00038974,-0.00134661,-0.00000300,0.00220328,0.00155389,0.00479376
 ,-0.00295416,0.00035940,-0.00035607,-0.00031632,-0.00135317,-0.0056066
 5,0.00265089,0.00855262,0.38575112,0.00078357,-0.00125834,0.00255306,-
 0.00197739,0.00221183,-0.00139192,0.00063136,0.00030114,-0.00229612,0.
 00848811,-0.00345473,-0.01368169,0.00199115,0.00021128,-0.00026061,-0.
 00475347,0.00469440,0.00165861,-0.16799591,0.11497864,0.12539017,-0.00
 156798,-0.00156592,-0.00062345,0.00093859,0.00030275,0.00049628,0.0009
 9506,0.00038100,-0.00082667,-0.00446146,-0.00117658,0.00253162,-0.0003
 3647,-0.00030177,-0.00023402,0.00558434,-0.00093503,-0.00825032,-0.226
 49021,-0.14606594,0.00996096,0.24249738,-0.00116222,-0.00045706,0.0003
 3127,0.00051194,0.00002206,-0.00035368,0.00078969,-0.00032437,-0.00095
 086,-0.00165837,-0.00168362,0.00194613,-0.00027802,0.00000579,0.000080
 67,0.00094322,-0.00012879,-0.00675423,-0.19938691,-0.22204696,-0.01215
 491,0.16329023,0.21626528,-0.00006489,0.00071411,-0.00071656,0.0004660
 7,-0.00092716,0.00024038,-0.00040909,-0.00016146,0.00082606,0.00078708
 ,0.00214959,0.00150658,-0.00033731,0.00010585,0.00011568,-0.00404045,-
 0.00578323,-0.00342479,-0.00999735,-0.02790518,-0.02669990,-0.00017295
 ,0.01964263,0.04333862,0.00017038,-0.00017297,-0.00011420,-0.00019789,
 0.00019246,0.00003261,-0.00010086,0.00012192,0.00013992,0.00134557,-0.
 00002871,-0.00234226,0.00010913,0.00002638,-0.00008634,-0.00132031,0.0
 0013794,0.00391760,-0.34347573,0.15477158,0.15085541,-0.02336549,0.025
 19036,0.01505485,0.36848034,0.00008021,-0.00008281,-0.00005230,-0.0000
 6393,0.00003703,0.00009329,-0.00009171,0.00015491,0.00007699,-0.000488
 86,0.00015395,0.00045114,0.00014135,0.00021756,0.00003415,0.00061432,-
 0.00125747,-0.00027123,0.20380275,-0.14826049,-0.10921111,-0.02422745,
 0.01375797,0.01136582,-0.17910440,0.13875080,-0.00003402,-0.00000834,0
 .00001770,-0.00004906,0.00005117,-0.00000103,0.00005287,-0.00002538,-0
 .00009218,-0.00043295,0.00059793,-0.00287577,0.00067556,-0.00016644,-0
 .00060912,0.00246615,-0.00130774,0.00340159,0.16782518,-0.09497743,-0.
 08757568,-0.00196337,-0.00196849,-0.00097228,-0.16711255,0.09872493,0.
 08771242,0.00027467,-0.00116284,0.01158448,-0.00257215,0.00097145,-0.0
 0015306,-0.00682514,-0.00101676,-0.00724193,0.00165635,-0.00072737,-0.
 00070779,0.00001255,-0.00008055,0.00007244,-0.00108339,-0.00003019,0.0
 0212568,-0.00017949,0.00854560,-0.00372255,-0.00433597,-0.00133164,0.0
 0055470,0.00088659,0.00015894,-0.00065893,0.58416279,0.00079089,0.0062
 6602,-0.00186327,0.00118488,-0.00097403,-0.00089770,-0.00181401,-0.006
 51923,0.00499247,-0.00061773,0.00090797,0.00117679,-0.00001788,-0.0001
 4322,-0.00007744,0.00030672,-0.00055526,-0.00195581,0.00763637,-0.0059
 8386,0.00334892,0.00123472,0.00260861,-0.00119134,-0.00089052,-0.00124
 902,0.00181347,-0.01849709,0.47144693,0.01217092,0.00158247,-0.0147932
 2,0.00172208,-0.00164970,0.00211883,-0.00527024,0.00461089,0.00289557,
 -0.00112838,0.00187896,-0.00055514,0.00001481,-0.00004322,0.00028222,0
 .00091293,-0.00115683,-0.00016177,-0.00275571,0.00212330,0.00431512,-0
 .00011128,-0.00041721,-0.00090315,0.00005567,0.00151667,-0.00124573,0.
 17560462,0.01547053,0.08891432,-0.00357200,-0.00155185,0.00039454,0.00
 038425,-0.00008328,-0.00010730,0.00406593,0.00044092,-0.00244435,-0.00
 038904,-0.00012411,0.00035244,-0.00001095,0.00001780,-0.00004688,0.000
 17777,0.00018752,-0.00076850,0.00088734,-0.00109235,0.00143108,0.00110
 016,0.00138865,-0.00082867,-0.00013988,-0.00006094,0.00007247,-0.32964
 592,-0.16896617,-0.11240028,0.35793520,-0.00088102,-0.00195049,0.00084
 724,-0.00015225,0.00037664,0.00015871,-0.00039076,0.00012184,-0.003438
 76,-0.00003993,-0.00037285,-0.00015562,-0.00002259,0.00002175,-0.00000
 009,0.00010690,0.00023558,0.00001915,-0.00087660,-0.00186928,0.0001619
 3,0.00146045,-0.00007005,0.00041669,0.00006924,-0.00008081,-0.00003785
 ,-0.22384990,-0.18466347,-0.08528709,0.19100472,0.17603546,0.00044906,
 0.00096804,0.00308222,-0.00074669,0.00036798,-0.00071682,-0.00279096,-
 0.00350282,-0.00463502,0.00047931,-0.00036658,0.00030191,0.00001596,-0
 .00004200,-0.00007008,-0.00038917,0.00007943,0.00010937,0.00078010,0.0
 0021469,-0.00070081,-0.00075264,0.00034969,0.00031232,0.00005364,-0.00
 012787,0.00027879,-0.11425894,-0.06514745,-0.04980743,0.12452157,0.074
 98927,0.05942092,0.00135012,-0.00006549,-0.00290179,0.00078316,-0.0006
 5709,0.00115316,-0.00240992,0.00143145,0.00403823,-0.00129447,0.000629
 14,0.00070534,-0.00001624,0.00002656,-0.00007546,0.00144218,-0.0004731
 2,-0.00201695,-0.00793695,-0.00362576,0.00195159,0.00630747,-0.0001353
 7,0.00056702,-0.00172303,0.00147286,-0.00030735,-0.23990820,0.18498292
 ,-0.06750380,-0.02977194,0.03202537,-0.00763535,0.27465442,-0.00144074
 ,-0.00122577,0.00225347,-0.00065575,0.00122247,-0.00039629,0.00262085,
 -0.00067543,-0.00355126,0.00105573,-0.00118170,-0.00160855,0.00008120,
 0.00015743,0.00006651,-0.00102538,0.00105523,0.00332517,-0.00168835,-0
 .00071455,-0.00159396,-0.00387314,-0.00539245,0.00245871,0.00186368,0.
 00097248,-0.00234712,0.24014655,-0.27882628,0.06285814,-0.02375543,0.0
 1284509,-0.00754908,-0.21462007,0.27111039,-0.00123343,0.00168408,-0.0
 0189004,0.00099570,-0.00036927,-0.00087038,0.00260230,-0.00322078,0.00
 323632,-0.00028524,-0.00052927,0.00094923,-0.00004946,-0.00002630,-0.0
 0020154,-0.00039392,0.00156934,-0.00197721,0.00049148,0.00075115,-0.00
 670317,0.00195810,0.00129436,0.00028602,-0.00025639,-0.00292577,0.0019
 2616,-0.06319210,0.04480689,-0.03121887,-0.01208062,0.01115771,-0.0024
 1884,0.07132914,-0.05391510,0.03880933,0.00279334,0.00142022,0.0016799
 5,-0.00172859,0.00084459,-0.00058671,-0.00104242,-0.00014373,0.0005999
 9,0.00160272,-0.00348057,-0.00455486,0.00014871,-0.00049098,0.00031186
 ,-0.00072277,0.00235457,0.00407056,-0.02340136,-0.02103257,0.00607906,
 0.00829980,0.00913767,-0.00847305,-0.00083039,-0.00262769,-0.00095509,
 0.00302457,-0.00125554,0.00016650,-0.00201430,-0.00076033,0.00052820,-
 0.00269371,0.00306435,-0.00136572,0.31069115,-0.00014154,-0.00148441,-
 0.00149030,-0.00000668,0.00050417,0.00100503,0.00007633,0.00076556,0.0
 0023679,-0.00168085,0.00148672,-0.00506823,-0.00045185,-0.00152451,0.0
 0022335,0.00086248,-0.00008209,0.00223022,-0.01662768,-0.00106172,0.00
 297630,0.01014568,-0.00968189,-0.00209313,-0.00238531,-0.00350244,-0.0
 0009078,-0.00018876,-0.00114950,0.00091113,0.00026659,0.00061111,-0.00
 093170,0.00005361,0.00124349,-0.00085233,-0.20974588,0.25304630,0.0008
 0264,-0.00020656,0.00187059,-0.00062287,0.00142631,-0.00060796,0.00018
 206,-0.00012522,-0.00085140,-0.00314746,-0.00425345,-0.00286675,-0.000
 14686,-0.00101398,0.00070838,0.00202764,0.00129969,-0.00295750,0.00831
 920,0.00458433,0.00695859,-0.00772486,-0.00052169,-0.01281931,-0.00004
 160,0.00072161,-0.00000896,-0.00009584,0.00072943,0.00065184,-0.000126
 20,-0.00071709,-0.00001825,0.00004976,-0.00081794,-0.00018681,0.124115
 55,0.03308699,0.57933583,-0.00271897,-0.00125588,-0.00224073,0.0011205
 5,-0.00131339,0.00035901,0.00078183,0.00008023,-0.00027621,-0.00006472
 ,0.00171089,0.00149939,0.00015840,0.00013303,-0.00014099,-0.00049232,-
 0.00086071,-0.00103221,0.00347391,0.00124504,0.00016966,-0.00972229,-0
 .00011506,-0.00071124,0.00002599,0.00030890,0.00023310,-0.00178400,0.0
 0082102,-0.00000698,0.00217062,0.00016706,-0.00044908,0.00058518,-0.00
 164579,0.00058409,-0.25095768,0.19076373,-0.11250973,0.26379084,0.0020
 8987,0.00239128,0.00305229,-0.00110478,0.00077177,-0.00137737,-0.00078
 660,-0.00079709,-0.00009009,0.00021462,-0.00252779,-0.00046660,0.00003
 132,-0.00007948,0.00004679,-0.00007938,0.00126109,0.00016251,-0.002867
 58,-0.00553102,0.00127989,0.00315885,0.00751261,-0.00343001,0.00024986
 ,0.00010740,-0.00008309,0.00208265,0.00051163,-0.00064604,-0.00170898,
 -0.00148396,0.00139703,-0.00158933,0.00082823,-0.00011625,0.20102712,-
 0.18130594,0.08983975,-0.18875543,0.17846882,-0.00103588,0.00003619,-0
 .00175179,0.00016595,-0.00109612,0.00009055,0.00005930,0.00006989,0.00
 051862,0.00029821,0.00010775,0.00049354,0.00016985,0.00007532,-0.00011
 971,-0.00033586,-0.00024435,-0.00003748,0.00179710,0.00310726,-0.00141
 724,-0.00187421,-0.00483854,0.00319913,-0.00007831,-0.00009810,0.00019
 574,-0.00062768,-0.00025679,-0.00061046,0.00055906,0.00107318,-0.00006
 255,0.00062503,-0.00039107,0.00054078,-0.07202185,0.05396358,-0.090746
 46,0.10774858,-0.07690244,0.11492543,-0.00107288,-0.00018554,-0.000491
 21,0.00143264,-0.00050942,0.00053019,0.00015408,-0.00004013,-0.0000025
 7,-0.00090111,0.00354305,0.00214247,-0.00033505,0.00065915,-0.00072453
 ,-0.00224400,-0.00350557,0.00065039,-0.00122673,-0.00068138,-0.0033161
 3,0.00227377,0.00157042,0.00763154,0.00003920,0.00013183,0.00027336,-0
 .00042416,0.00011720,-0.00020472,0.00026830,0.00020890,-0.00003713,0.0
 0031282,-0.00036447,0.00037462,-0.03562740,0.01750680,-0.00531279,-0.0
 0256724,-0.00703281,-0.03758011,0.04017017,-0.00061710,0.00109841,-0.0
 0063968,0.00049743,-0.00189280,-0.00009447,-0.00011363,-0.00038477,0.0
 0049566,0.00114023,-0.00212989,0.00232713,0.00093875,0.00203789,-0.000
 89508,-0.00284024,-0.00113840,0.00112712,-0.00026975,-0.00166647,-0.00
 173125,0.00048586,0.00194607,0.00364505,0.00004785,0.00028976,-0.00023
 303,0.00006275,0.00012506,-0.00070410,0.00012569,0.00004775,0.00031361
 ,-0.00009476,-0.00004911,0.00037413,0.00860692,-0.05065825,-0.13048750
 ,0.00322869,0.00535114,0.02906307,-0.01245968,0.04894027,-0.00049711,-
 0.00013580,-0.00132486,0.00071428,-0.00091868,0.00095697,-0.00009452,0
 .00024256,0.00047450,0.00093405,0.00187119,-0.00339730,-0.00040316,-0.
 00028475,-0.00127715,-0.00042014,0.00048938,0.00384505,-0.00333566,-0.
 00265090,-0.00029458,0.00563654,0.00310704,-0.00361518,-0.00005844,-0.
 00030712,-0.00003291,0.00002939,-0.00051972,-0.00009695,0.00009306,0.0
 0031695,-0.00019896,-0.00001397,0.00054428,-0.00012781,-0.04218868,-0.
 09067609,-0.47996156,0.00372658,-0.00786108,-0.01944582,0.03481965,0.0
 9751520,0.50285793,0.00032934,-0.01030130,-0.01066455,0.00077349,0.000
 05273,0.00135963,0.00051336,0.00204945,0.00085444,-0.00009194,0.000043
 90,-0.00094883,-0.00011939,-0.00007761,0.00019657,0.00029134,0.0000594
 2,0.00056960,-0.00115906,-0.00003922,-0.00014708,0.00159651,0.00030056
 ,-0.00023055,0.00015072,0.00004251,-0.00015257,-0.00480759,-0.00484823
 ,0.00211798,-0.00105168,0.00130675,-0.00291747,0.00126049,-0.00038117,
 -0.00009750,-0.00587618,0.01243477,-0.00407369,-0.00530377,-0.00473980
 ,-0.00138972,-0.00050159,-0.00000546,0.00093023,0.60003456,-0.01338569
 ,-0.00594940,-0.01780365,0.00093337,-0.00576623,0.00069335,0.00312395,
 0.00131887,-0.00109203,-0.00069964,0.00314706,0.00042605,0.00008184,-0
 .00005485,0.00006666,0.00008554,-0.00114062,-0.00052562,0.00176889,0.0
 0343226,-0.00047258,-0.00431637,-0.00360828,0.00121053,-0.00009128,0.0
 0001498,0.00003960,-0.00596399,0.00142390,0.00180590,0.00299724,-0.003
 43606,-0.00161371,0.00094248,-0.00246832,0.00026835,0.01526905,-0.0057
 5702,0.00519972,-0.00908732,-0.00426432,-0.00086048,-0.00036873,-0.001
 82561,-0.00176271,0.01066694,0.21199543,-0.01543663,-0.01754398,-0.011
 65454,0.00234187,-0.00275634,0.00163052,0.00227491,0.00088378,-0.00627
 358,-0.00133516,0.00130954,-0.00004180,-0.00002285,-0.00005142,0.00021
 988,0.00064451,-0.00029378,-0.00097627,-0.00051049,-0.00074202,0.00141
 734,0.00090330,0.00063240,-0.00104277,-0.00002738,0.00002471,-0.000168
 55,0.00184230,0.00034994,0.00471175,-0.00410134,-0.00039633,-0.0030416
 6,0.00005651,0.00098765,-0.00091618,-0.00409696,0.00463946,0.00403190,
 -0.00148494,-0.00054944,-0.00919163,0.00140611,-0.00118469,0.00067959,
 0.11759091,0.21322699,0.30414150,0.00094377,0.00044784,0.00061975,-0.0
 0015481,0.00011255,-0.00015382,-0.00027181,-0.00005740,0.00004651,0.00
 011208,-0.00007939,0.00010204,0.00002949,0.00000841,-0.00003254,-0.000
 04785,0.00000718,0.00000944,0.00014315,0.00005823,0.00001296,-0.000140
 81,-0.00012230,0.00004613,-0.00001914,-0.00001373,-0.00000866,0.000605
 94,-0.00016440,0.00022576,-0.00173177,-0.00018960,-0.00024704,0.000042
 55,0.00011850,-0.00004029,0.00147084,-0.00068964,0.00021952,-0.0031803
 7,0.00128661,-0.00033734,-0.00016036,0.00016292,-0.00005591,-0.5231020
 6,0.00344062,-0.08295279,0.53723397,-0.00002704,-0.00271487,-0.0018744
 4,0.00016096,0.00021119,0.00002238,-0.00002695,0.00051136,0.00000860,0
 .00002006,-0.00003624,0.00015556,0.00001508,0.00003136,-0.00002361,-0.
 00004203,-0.00004244,-0.00008568,0.00015112,0.00004151,0.00001054,-0.0
 0037063,-0.00005735,0.00003900,-0.00001089,0.00002379,0.00001980,-0.00
 061170,-0.00104067,0.00062147,-0.00017461,0.00066639,-0.00119631,0.000
 07456,-0.00003726,-0.00001607,0.00131466,-0.00383856,0.00125097,0.0013
 5103,0.00563684,-0.00082109,0.00020422,0.00007026,-0.00021591,0.035993
 84,-0.02261783,-0.01399034,-0.00987988,0.02071909,0.00015435,-0.002488
 87,-0.00247842,0.00002819,0.00012618,0.00022073,0.00027684,0.00017540,
 0.00011276,0.00012506,0.00001967,-0.00004020,-0.00002844,0.00000307,-0
 .00000996,-0.00001059,-0.00001267,0.00003050,0.00025192,-0.00000715,-0
 .00004447,-0.00030216,0.00002885,0.00000388,-0.00002579,-0.00000674,0.
 00005561,0.00092973,0.00136216,-0.00061430,-0.00025738,-0.00179515,0.0
 0156538,-0.00032681,-0.00002855,-0.00001015,0.00026732,0.00035216,0.00
 019954,-0.00087857,0.00014830,-0.00083461,-0.00017553,-0.00014965,0.00
 005210,-0.04006296,-0.01943454,-0.03387855,0.07683892,0.01756732,0.037
 55512,-0.00349296,0.00958057,0.00921385,-0.00346511,-0.00038684,-0.004
 06053,-0.00484970,-0.00645837,-0.00026269,0.00081713,-0.00162390,0.000
 62233,0.00014219,0.00000155,-0.00023951,-0.00060619,0.00054770,0.00026
 918,0.00001797,-0.00088437,-0.00044237,0.00082758,0.00106714,0.0001581
 6,-0.00003520,-0.00007497,0.00007584,0.00094256,-0.00000316,-0.0036098
 6,0.00133791,0.00081360,0.00339664,-0.00098391,0.00049945,0.00065924,-
 0.00313633,-0.00019180,-0.00191449,0.00468404,-0.00147622,0.00385789,0
 .00040955,0.00110353,0.00018380,-0.06293652,-0.00539689,-0.01709186,-0
 .01177280,-0.02814179,-0.03680412,0.08209978,0.00779947,-0.00720728,0.
 01116359,0.00009126,0.00897395,-0.00009282,-0.00737398,-0.00481812,0.0
 0170805,0.00124756,-0.00325479,-0.00028589,-0.00011925,0.00006266,-0.0
 0013706,-0.00022166,0.00091246,0.00087761,-0.00096144,-0.00146247,-0.0
 0029799,0.00237330,0.00133246,-0.00025647,0.00001280,-0.00004759,-0.00
 000120,0.00149285,-0.00218555,-0.00347528,0.00108860,0.00296535,0.0017
 9777,-0.00037796,0.00113605,0.00006509,-0.00350186,0.00238899,0.000004
 63,0.00322398,-0.00685120,-0.00198729,0.00120616,-0.00016131,0.0012461
 6,-0.04255809,-0.16444395,-0.18454613,0.00555348,0.00247343,0.00414020
 ,0.03102477,0.17018691,0.00983938,0.01183570,-0.00203258,-0.00503755,0
 .00173597,-0.00461077,-0.00137602,0.00021839,0.01008826,0.00187569,-0.
 00263468,-0.00014580,0.00006393,0.00001066,-0.00026653,-0.00066892,0.0
 0079176,0.00152377,-0.00064969,-0.00041120,-0.00122670,0.00134913,0.00
 054658,0.00036528,0.00003355,-0.00000907,-0.00000579,-0.00208451,-0.00
 214109,-0.00388262,0.00573728,0.00268714,-0.00340048,0.00030570,-0.000
 29501,0.00077317,-0.00357609,0.00157755,-0.00273171,0.00541028,-0.0044
 0415,0.00425395,0.00001640,0.00125847,0.00090691,-0.06293442,-0.179371
 83,-0.24964694,0.00570735,-0.00147219,-0.00188495,0.04598851,0.1700770
 1,0.25192353\\0.00001422,-0.00000863,0.00000502,-0.00000762,-0.0000004
 4,-0.00000453,-0.00001218,0.00001383,0.00000084,-0.00000158,-0.0000436
 5,-0.00000596,-0.00000102,0.00001997,0.00000257,0.00001124,0.00001723,
 0.00000300,0.00000388,-0.00000894,0.00001032,0.00000492,-0.00000551,-0
 .00000017,-0.00000134,-0.00000346,-0.00000351,0.00000267,-0.00001173,0
 .00000558,-0.00000419,-0.00000260,0.00000688,0.00000058,0.00001487,-0.
 00001119,0.00000293,-0.00000342,-0.00000734,-0.00002236,-0.00000007,0.
 00000326,0.00000053,0.00001798,-0.00000214,0.00002732,-0.00000276,-0.0
 0000325,-0.00000305,-0.00000836,0.00000382,-0.00001495,0.00001571,-0.0
 0000322\\\@


    THE DOUGHNUT CREED
 AS YOU RAMBLE ON THROUGH LIFE, BROTHER
 WHATEVER BE YOUR GOAL
 KEEP YOUR EYE UPON THE DOUGHNUT
 AND NOT UPON THE HOLE.
 Job cpu time:  0 days  2 hours 12 minutes  7.3 seconds.
 File lengths (MBytes):  RWF=   3059 Int=      0 D2E=      0 Chk=      3 Scr=      1
 Normal termination of Gaussian 09 at Tue Dec 13 10:40:10 2011.

real	25m32.815s
user	401m36.421s
sys	2m16.515s
