 Entering Gaussian System, Link 0=/share/apps/gaussian/g09/g09
 Initial command:
 /share/apps/gaussian/g09/l1.exe /scratch/kyagi/eq-mp2dz.18375/Gau-18385.inp -scrdir=/scratch/kyagi/eq-mp2dz.18375/
 Entering Link 1 = /share/apps/gaussian/g09/l1.exe PID=     18386.
  
 Copyright (c) 1988,1990,1992,1993,1995,1998,2003,2009,2010,
            Gaussian, Inc.  All Rights Reserved.
  
 This is part of the Gaussian(R) 09 program.  It is based on
 the Gaussian(R) 03 system (copyright 2003, Gaussian, Inc.),
 the Gaussian(R) 98 system (copyright 1998, Gaussian, Inc.),
 the Gaussian(R) 94 system (copyright 1995, Gaussian, Inc.),
 the Gaussian 92(TM) system (copyright 1992, Gaussian, Inc.),
 the Gaussian 90(TM) system (copyright 1990, Gaussian, Inc.),
 the Gaussian 88(TM) system (copyright 1988, Gaussian, Inc.),
 the Gaussian 86(TM) system (copyright 1986, Carnegie Mellon
 University), and the Gaussian 82(TM) system (copyright 1983,
 Carnegie Mellon University). Gaussian is a federally registered
 trademark of Gaussian, Inc.
  
 This software contains proprietary and confidential information,
 including trade secrets, belonging to Gaussian, Inc.
  
 This software is provided under written license and may be
 used, copied, transmitted, or stored only in accord with that
 written license.
  
 The following legend is applicable only to US Government
 contracts under FAR:
  
                    RESTRICTED RIGHTS LEGEND
  
 Use, reproduction and disclosure by the US Government is
 subject to restrictions as set forth in subparagraphs (a)
 and (c) of the Commercial Computer Software - Restricted
 Rights clause in FAR 52.227-19.
  
 Gaussian, Inc.
 340 Quinnipiac St., Bldg. 40, Wallingford CT 06492
  
  
 ---------------------------------------------------------------
 Warning -- This program may not be used in any manner that
 competes with the business of Gaussian, Inc. or will provide
 assistance to any competitor of Gaussian, Inc.  The licensee
 of this program is prohibited from giving any competitor of
 Gaussian, Inc. access to this program.  By using this program,
 the user acknowledges that Gaussian, Inc. is engaged in the
 business of creating and licensing software in the field of
 computational chemistry and represents and warrants to the
 licensee that it is not a competitor of Gaussian, Inc. and that
 it will not use this program in any manner prohibited above.
 ---------------------------------------------------------------
  

 Cite this work as:
 Gaussian 09, Revision B.01,
 M. J. Frisch, G. W. Trucks, H. B. Schlegel, G. E. Scuseria, 
 M. A. Robb, J. R. Cheeseman, G. Scalmani, V. Barone, B. Mennucci, 
 G. A. Petersson, H. Nakatsuji, M. Caricato, X. Li, H. P. Hratchian, 
 A. F. Izmaylov, J. Bloino, G. Zheng, J. L. Sonnenberg, M. Hada, 
 M. Ehara, K. Toyota, R. Fukuda, J. Hasegawa, M. Ishida, T. Nakajima, 
 Y. Honda, O. Kitao, H. Nakai, T. Vreven, J. A. Montgomery, Jr., 
 J. E. Peralta, F. Ogliaro, M. Bearpark, J. J. Heyd, E. Brothers, 
 K. N. Kudin, V. N. Staroverov, T. Keith, R. Kobayashi, J. Normand, 
 K. Raghavachari, A. Rendell, J. C. Burant, S. S. Iyengar, J. Tomasi, 
 M. Cossi, N. Rega, J. M. Millam, M. Klene, J. E. Knox, J. B. Cross, 
 V. Bakken, C. Adamo, J. Jaramillo, R. Gomperts, R. E. Stratmann, 
 O. Yazyev, A. J. Austin, R. Cammi, C. Pomelli, J. W. Ochterski, 
 R. L. Martin, K. Morokuma, V. G. Zakrzewski, G. A. Voth, 
 P. Salvador, J. J. Dannenberg, S. Dapprich, A. D. Daniels, 
 O. Farkas, J. B. Foresman, J. V. Ortiz, J. Cioslowski, 
 and D. J. Fox, Gaussian, Inc., Wallingford CT, 2010.
 
 ******************************************
 Gaussian 09:  AM64L-G09RevB.01 12-Aug-2010
                21-Apr-2012 
 ******************************************
 %NprocShared=8
 Will use up to    8 processors via shared memory.
 %mem=4000MB
 %chk=eq-mp2dz.chk
 ------------------------------
 #p MP2/cc-pVDZ Opt Freq=hpmode
 ------------------------------
 1/18=20,19=15,38=1/1,3;
 2/9=110,12=2,17=6,18=5,40=1/2;
 3/5=16,11=9,16=1,25=1,30=1,71=1/1,2,3;
 4//1;
 5/5=2,38=5/2;
 8/6=4,10=1/1;
 9/15=2,16=-3/6;
 10/5=1/2;
 6/7=2,8=2,9=2,10=2/1;
 7/12=2/1,2,3,16;
 1/18=20,19=15/3(2);
 2/9=110/2;
 99//99;
 2/9=110/2;
 3/5=16,11=9,16=1,25=1,30=1,71=1/1,2,3;
 4/5=5,16=3/1;
 5/5=2,38=5/2;
 8/6=4,10=1/1;
 9/15=2,16=-3/6;
 10/5=1/2;
 7/12=2/1,2,3,16;
 1/18=20,19=15/3(-8);
 2/9=110/2;
 6/7=2,8=2,9=2,10=2/1;
 99//99;
 Leave Link    1 at Sat Apr 21 15:47:48 2012, MaxMem=  524288000 cpu:       0.7
 (Enter /share/apps/gaussian/g09/l101.exe)
 --------------------------
 c2h4 Frequency MP2/cc-pVDZ
 --------------------------
 Symbolic Z-matrix:
 Charge =  0 Multiplicity = 1
 C                     0.        0.        0.6 
 C                     0.        0.       -0.6 
 H                     0.        0.865     1.1 
 H                     0.       -0.865     1.1 
 H                     0.        0.865    -1.1 
 H                     0.       -0.865    -1.1 
 
 NAtoms=      6 NQM=      6 NQMF=      0 NMic=      0 NMicF=      0 NTot=      6.
                    Isotopes and Nuclear Properties:
 (Nuclear quadrupole moments (NQMom) in fm**2, nuclear magnetic moments (NMagM)
  in nuclear magnetons)

  Atom         1           2           3           4           5           6
 IAtWgt=          12          12           1           1           1           1
 AtmWgt=  12.0000000  12.0000000   1.0078250   1.0078250   1.0078250   1.0078250
 NucSpn=           0           0           1           1           1           1
 AtZEff=   0.0000000   0.0000000   0.0000000   0.0000000   0.0000000   0.0000000
 NQMom=    0.0000000   0.0000000   0.0000000   0.0000000   0.0000000   0.0000000
 NMagM=    0.0000000   0.0000000   2.7928460   2.7928460   2.7928460   2.7928460
 Leave Link  101 at Sat Apr 21 15:47:48 2012, MaxMem=  524288000 cpu:       1.6
 (Enter /share/apps/gaussian/g09/l103.exe)

 GradGradGradGradGradGradGradGradGradGradGradGradGradGradGradGradGradGrad
 Berny optimization.
 Initialization pass.
                           ----------------------------
                           !    Initial Parameters    !
                           ! (Angstroms and Degrees)  !
 --------------------------                            --------------------------
 ! Name  Definition              Value          Derivative Info.                !
 --------------------------------------------------------------------------------
 ! R1    R(1,2)                  1.2            estimate D2E/DX2                !
 ! R2    R(1,3)                  0.9991         estimate D2E/DX2                !
 ! R3    R(1,4)                  0.9991         estimate D2E/DX2                !
 ! R4    R(2,5)                  0.9991         estimate D2E/DX2                !
 ! R5    R(2,6)                  0.9991         estimate D2E/DX2                !
 ! A1    A(2,1,3)              120.0294         estimate D2E/DX2                !
 ! A2    A(2,1,4)              120.0294         estimate D2E/DX2                !
 ! A3    A(3,1,4)              119.9412         estimate D2E/DX2                !
 ! A4    A(1,2,5)              120.0294         estimate D2E/DX2                !
 ! A5    A(1,2,6)              120.0294         estimate D2E/DX2                !
 ! A6    A(5,2,6)              119.9412         estimate D2E/DX2                !
 ! D1    D(3,1,2,5)              0.0            estimate D2E/DX2                !
 ! D2    D(3,1,2,6)            180.0            estimate D2E/DX2                !
 ! D3    D(4,1,2,5)            180.0            estimate D2E/DX2                !
 ! D4    D(4,1,2,6)              0.0            estimate D2E/DX2                !
 --------------------------------------------------------------------------------
 Trust Radius=3.00D-01 FncErr=1.00D-07 GrdErr=1.00D-07
 Number of steps in this run=     25 maximum allowed number of steps=    100.
 GradGradGradGradGradGradGradGradGradGradGradGradGradGradGradGradGradGrad

 Leave Link  103 at Sat Apr 21 15:47:48 2012, MaxMem=  524288000 cpu:       0.2
 (Enter /share/apps/gaussian/g09/l202.exe)
                          Input orientation:                          
 ---------------------------------------------------------------------
 Center     Atomic      Atomic             Coordinates (Angstroms)
 Number     Number       Type             X           Y           Z
 ---------------------------------------------------------------------
      1          6           0        0.000000    0.000000    0.600000
      2          6           0        0.000000    0.000000   -0.600000
      3          1           0        0.000000    0.865000    1.100000
      4          1           0        0.000000   -0.865000    1.100000
      5          1           0        0.000000    0.865000   -1.100000
      6          1           0        0.000000   -0.865000   -1.100000
 ---------------------------------------------------------------------
                    Distance matrix (angstroms):
                    1          2          3          4          5
     1  C    0.000000
     2  C    1.200000   0.000000
     3  H    0.999112   1.907413   0.000000
     4  H    0.999112   1.907413   1.730000   0.000000
     5  H    1.907413   0.999112   2.200000   2.798732   0.000000
     6  H    1.907413   0.999112   2.798732   2.200000   1.730000
                    6
     6  H    0.000000
 Stoichiometry    C2H4
 Framework group  D2H[C2"(C.C),SG(H4)]
 Deg. of freedom     3
 Full point group                 D2H     NOp   8
 Largest Abelian subgroup         D2H     NOp   8
 Largest concise Abelian subgroup D2      NOp   4
                         Standard orientation:                         
 ---------------------------------------------------------------------
 Center     Atomic      Atomic             Coordinates (Angstroms)
 Number     Number       Type             X           Y           Z
 ---------------------------------------------------------------------
      1          6           0        0.000000    0.000000    0.600000
      2          6           0        0.000000    0.000000   -0.600000
      3          1           0        0.000000    0.865000    1.100000
      4          1           0        0.000000   -0.865000    1.100000
      5          1           0        0.000000    0.865000   -1.100000
      6          1           0        0.000000   -0.865000   -1.100000
 ---------------------------------------------------------------------
 Rotational constants (GHZ):    167.5482309     37.3859851     30.5656897
 Leave Link  202 at Sat Apr 21 15:47:48 2012, MaxMem=  524288000 cpu:       0.0
 (Enter /share/apps/gaussian/g09/l301.exe)
 Standard basis: CC-pVDZ (5D, 7F)
 Ernie: Thresh=  0.10000D-02 Tol=  0.10000D-05 Strict=F.
 Ernie:  4 primitive shells out of 64 were deleted.
 There are    11 symmetry adapted basis functions of AG  symmetry.
 There are     2 symmetry adapted basis functions of B1G symmetry.
 There are     4 symmetry adapted basis functions of B2G symmetry.
 There are     7 symmetry adapted basis functions of B3G symmetry.
 There are     2 symmetry adapted basis functions of AU  symmetry.
 There are    11 symmetry adapted basis functions of B1U symmetry.
 There are     7 symmetry adapted basis functions of B2U symmetry.
 There are     4 symmetry adapted basis functions of B3U symmetry.
 Integral buffers will be    131072 words long.
 Raffenetti 1 integral format.
 Two-electron integral symmetry is turned on.
    48 basis functions,    94 primitive gaussians,    50 cartesian basis functions
     8 alpha electrons        8 beta electrons
       nuclear repulsion energy        36.7162114607 Hartrees.
 IExCor=    0 DFT=F Ex=HF Corr=None ExCW=0 ScaHFX=  1.000000
 ScaDFX=  1.000000  1.000000  1.000000  1.000000 ScalE2=  1.000000  1.000000
 IRadAn=      0 IRanWt=     -1 IRanGd=            0 ICorTp=0
 NAtoms=    6 NActive=    6 NUniq=    2 SFac= 4.00D+00 NAtFMM=   50 NAOKFM=F Big=F
 Leave Link  301 at Sat Apr 21 15:47:48 2012, MaxMem=  524288000 cpu:       1.0
 (Enter /share/apps/gaussian/g09/l302.exe)
 NPDir=0 NMtPBC=     1 NCelOv=     1 NCel=       1 NClECP=     1 NCelD=      1
         NCelK=      1 NCelE2=     1 NClLst=     1 CellRange=     0.0.
 One-electron integrals computed using PRISM.
 One-electron integral symmetry used in STVInt
 NBasis=    48 RedAO= T  NBF=    11     2     4     7     2    11     7     4
 NBsUse=    48 1.00D-06 NBFU=    11     2     4     7     2    11     7     4
 Leave Link  302 at Sat Apr 21 15:47:49 2012, MaxMem=  524288000 cpu:       2.2
 (Enter /share/apps/gaussian/g09/l303.exe)
 DipDrv:  MaxL=1.
 Leave Link  303 at Sat Apr 21 15:47:49 2012, MaxMem=  524288000 cpu:       0.8
 (Enter /share/apps/gaussian/g09/l401.exe)
 Harris functional with IExCor=  205 diagonalized for initial guess.
 ExpMin= 1.22D-01 ExpMax= 6.67D+03 ExpMxC= 2.28D+02 IAcc=1 IRadAn=         1 AccDes= 0.00D+00
 HarFok:  IExCor=  205 AccDes= 0.00D+00 IRadAn=         1 IDoV= 1
 ScaDFX=  1.000000  1.000000  1.000000  1.000000
 FoFCou: FMM=F IPFlag=           0 FMFlag=      100000 FMFlg1=           0
         NFxFlg=           0 DoJE=T BraDBF=F KetDBF=T FulRan=T
         Omega=  0.000000  0.000000  1.000000  0.000000  0.000000 ICntrl=     500 IOpCl=  0
         NMat0=    1 NMatS0=    1 NMatT0=    0 NMatD0=    1 NMtDS0=    0 NMtDT0=    0
         I1Cent=           4 NGrid=           0.
 Petite list used in FoFCou.
 Harris En= -78.2162102275580    
 Initial guess orbital symmetries:
       Occupied  (AG) (B1U) (AG) (B1U) (B2U) (AG) (B3G) (B3U)
       Virtual   (B2G) (AG) (B2U) (B1U) (B3G) (B1U) (AG) (B3U)
                 (B2U) (AG) (B2G) (B1U) (B2U) (B3G) (B1U) (AG)
                 (B1G) (B3U) (B1U) (AU) (B3G) (AG) (B3G) (B2U)
                 (B2G) (AG) (B1U) (B1G) (B3U) (B2U) (B2G) (B1U)
                 (AU) (B3G) (AG) (B1U) (B2U) (AG) (B1U) (B3G)
 The electronic state of the initial guess is 1-AG.
 Leave Link  401 at Sat Apr 21 15:47:49 2012, MaxMem=  524288000 cpu:       2.8
 (Enter /share/apps/gaussian/g09/l502.exe)
 Closed shell SCF:
 Requested convergence on RMS density matrix=1.00D-08 within 128 cycles.
 Requested convergence on MAX density matrix=1.00D-06.
 Requested convergence on             energy=1.00D-06.
 No special actions if energy rises.
 Using DIIS extrapolation, IDIIS=  1040.
 Integral symmetry usage will be decided dynamically.
 Keep R1 ints in memory in canonical form, NReq=1660206.
 IEnd=       26742 IEndB=       26742 NGot=   524288000 MDV=   523466971
 LenX=   523466971 LenY=   523464030
 Symmetry not used in FoFDir.
 MinBra= 0 MaxBra= 2 Meth= 1.
 IRaf=       0 NMat=   1 IRICut=       1 DoRegI=T DoRafI=F ISym2E= 0 JSym2E=0.

 Cycle   1  Pass 1  IDiag  1:
 E= -77.8142656415495    
 DIIS: error= 8.00D-02 at cycle   1 NSaved=   1.
 NSaved= 1 IEnMin= 1 EnMin= -77.8142656415495     IErMin= 1 ErrMin= 8.00D-02
 ErrMax= 8.00D-02 EMaxC= 1.00D-01 BMatC= 1.67D-01 BMatP= 1.67D-01
 IDIUse=3 WtCom= 2.00D-01 WtEn= 8.00D-01
 Coeff-Com:  0.100D+01
 Coeff-En:   0.100D+01
 Coeff:      0.100D+01
 Gap=     0.498 Goal=   None    Shift=    0.000
 GapD=    0.498 DampG=2.000 DampE=0.500 DampFc=1.0000 IDamp=-1.
 RMSDP=8.99D-03 MaxDP=1.29D-01              OVMax= 1.67D-01

 Cycle   2  Pass 1  IDiag  1:
 E= -77.9679538353845     Delta-E=       -0.153688193835 Rises=F Damp=F
 DIIS: error= 2.43D-02 at cycle   2 NSaved=   2.
 NSaved= 2 IEnMin= 2 EnMin= -77.9679538353845     IErMin= 2 ErrMin= 2.43D-02
 ErrMax= 2.43D-02 EMaxC= 1.00D-01 BMatC= 2.26D-02 BMatP= 1.67D-01
 IDIUse=3 WtCom= 7.57D-01 WtEn= 2.43D-01
 Coeff-Com:  0.244D+00 0.756D+00
 Coeff-En:   0.000D+00 0.100D+01
 Coeff:      0.185D+00 0.815D+00
 Gap=     0.621 Goal=   None    Shift=    0.000
 RMSDP=2.55D-03 MaxDP=2.75D-02 DE=-1.54D-01 OVMax= 4.63D-02

 Cycle   3  Pass 1  IDiag  1:
 E= -77.9894944353454     Delta-E=       -0.021540599961 Rises=F Damp=F
 DIIS: error= 4.83D-03 at cycle   3 NSaved=   3.
 NSaved= 3 IEnMin= 3 EnMin= -77.9894944353454     IErMin= 3 ErrMin= 4.83D-03
 ErrMax= 4.83D-03 EMaxC= 1.00D-01 BMatC= 3.88D-04 BMatP= 2.26D-02
 IDIUse=3 WtCom= 9.52D-01 WtEn= 4.83D-02
 Coeff-Com: -0.307D-01 0.417D-01 0.989D+00
 Coeff-En:   0.000D+00 0.000D+00 0.100D+01
 Coeff:     -0.293D-01 0.397D-01 0.990D+00
 Gap=     0.608 Goal=   None    Shift=    0.000
 RMSDP=3.26D-04 MaxDP=5.01D-03 DE=-2.15D-02 OVMax= 7.86D-03

 Cycle   4  Pass 1  IDiag  1:
 E= -77.9899326550425     Delta-E=       -0.000438219697 Rises=F Damp=F
 DIIS: error= 5.37D-04 at cycle   4 NSaved=   4.
 NSaved= 4 IEnMin= 4 EnMin= -77.9899326550425     IErMin= 4 ErrMin= 5.37D-04
 ErrMax= 5.37D-04 EMaxC= 1.00D-01 BMatC= 4.35D-06 BMatP= 3.88D-04
 IDIUse=3 WtCom= 9.95D-01 WtEn= 5.37D-03
 Coeff-Com:  0.425D-02-0.187D-01-0.216D+00 0.123D+01
 Coeff-En:   0.000D+00 0.000D+00 0.000D+00 0.100D+01
 Coeff:      0.423D-02-0.186D-01-0.215D+00 0.123D+01
 Gap=     0.609 Goal=   None    Shift=    0.000
 RMSDP=6.65D-05 MaxDP=5.85D-04 DE=-4.38D-04 OVMax= 1.23D-03

 Cycle   5  Pass 1  IDiag  1:
 E= -77.9899412221545     Delta-E=       -0.000008567112 Rises=F Damp=F
 DIIS: error= 8.02D-05 at cycle   5 NSaved=   5.
 NSaved= 5 IEnMin= 5 EnMin= -77.9899412221545     IErMin= 5 ErrMin= 8.02D-05
 ErrMax= 8.02D-05 EMaxC= 1.00D-01 BMatC= 8.96D-08 BMatP= 4.35D-06
 IDIUse=1 WtCom= 1.00D+00 WtEn= 0.00D+00
 Coeff-Com:  0.158D-03 0.573D-03-0.100D-03-0.153D+00 0.115D+01
 Coeff:      0.158D-03 0.573D-03-0.100D-03-0.153D+00 0.115D+01
 Gap=     0.609 Goal=   None    Shift=    0.000
 RMSDP=1.38D-05 MaxDP=1.17D-04 DE=-8.57D-06 OVMax= 2.23D-04

 Cycle   6  Pass 1  IDiag  1:
 E= -77.9899414296986     Delta-E=       -0.000000207544 Rises=F Damp=F
 DIIS: error= 8.07D-06 at cycle   6 NSaved=   6.
 NSaved= 6 IEnMin= 6 EnMin= -77.9899414296986     IErMin= 6 ErrMin= 8.07D-06
 ErrMax= 8.07D-06 EMaxC= 1.00D-01 BMatC= 1.36D-09 BMatP= 8.96D-08
 IDIUse=1 WtCom= 1.00D+00 WtEn= 0.00D+00
 Coeff-Com: -0.878D-04 0.158D-03 0.314D-02 0.170D-01-0.272D+00 0.125D+01
 Coeff:     -0.878D-04 0.158D-03 0.314D-02 0.170D-01-0.272D+00 0.125D+01
 Gap=     0.609 Goal=   None    Shift=    0.000
 RMSDP=2.37D-06 MaxDP=1.82D-05 DE=-2.08D-07 OVMax= 2.42D-05

 Cycle   7  Pass 1  IDiag  1:
 E= -77.9899414327266     Delta-E=       -0.000000003028 Rises=F Damp=F
 DIIS: error= 9.88D-07 at cycle   7 NSaved=   7.
 NSaved= 7 IEnMin= 7 EnMin= -77.9899414327266     IErMin= 7 ErrMin= 9.88D-07
 ErrMax= 9.88D-07 EMaxC= 1.00D-01 BMatC= 1.42D-11 BMatP= 1.36D-09
 IDIUse=1 WtCom= 1.00D+00 WtEn= 0.00D+00
 Coeff-Com:  0.262D-04-0.541D-04-0.101D-02-0.360D-02 0.723D-01-0.379D+00
 Coeff-Com:  0.131D+01
 Coeff:      0.262D-04-0.541D-04-0.101D-02-0.360D-02 0.723D-01-0.379D+00
 Coeff:      0.131D+01
 Gap=     0.609 Goal=   None    Shift=    0.000
 RMSDP=1.87D-07 MaxDP=1.70D-06 DE=-3.03D-09 OVMax= 2.58D-06

 Cycle   8  Pass 1  IDiag  1:
 E= -77.9899414327583     Delta-E=       -0.000000000032 Rises=F Damp=F
 DIIS: error= 9.36D-08 at cycle   8 NSaved=   8.
 NSaved= 8 IEnMin= 8 EnMin= -77.9899414327583     IErMin= 8 ErrMin= 9.36D-08
 ErrMax= 9.36D-08 EMaxC= 1.00D-01 BMatC= 1.45D-13 BMatP= 1.42D-11
 IDIUse=1 WtCom= 1.00D+00 WtEn= 0.00D+00
 Coeff-Com: -0.480D-05 0.970D-05 0.181D-03 0.585D-03-0.124D-01 0.660D-01
 Coeff-Com: -0.271D+00 0.122D+01
 Coeff:     -0.480D-05 0.970D-05 0.181D-03 0.585D-03-0.124D-01 0.660D-01
 Coeff:     -0.271D+00 0.122D+01
 Gap=     0.609 Goal=   None    Shift=    0.000
 RMSDP=1.90D-08 MaxDP=1.45D-07 DE=-3.18D-11 OVMax= 3.19D-07

 Cycle   9  Pass 1  IDiag  1:
 E= -77.9899414327587     Delta-E=        0.000000000000 Rises=F Damp=F
 DIIS: error= 1.74D-08 at cycle   9 NSaved=   9.
 NSaved= 9 IEnMin= 9 EnMin= -77.9899414327587     IErMin= 9 ErrMin= 1.74D-08
 ErrMax= 1.74D-08 EMaxC= 1.00D-01 BMatC= 3.82D-15 BMatP= 1.45D-13
 IDIUse=1 WtCom= 1.00D+00 WtEn= 0.00D+00
 Coeff-Com:  0.629D-06-0.107D-05-0.225D-04-0.820D-04 0.157D-02-0.826D-02
 Coeff-Com:  0.358D-01-0.293D+00 0.126D+01
 Coeff:      0.629D-06-0.107D-05-0.225D-04-0.820D-04 0.157D-02-0.826D-02
 Coeff:      0.358D-01-0.293D+00 0.126D+01
 Gap=     0.609 Goal=   None    Shift=    0.000
 RMSDP=2.92D-09 MaxDP=2.65D-08 DE=-3.13D-13 OVMax= 6.10D-08

 SCF Done:  E(RHF) =  -77.9899414328     A.U. after    9 cycles
             Convg  =    0.2924D-08             -V/T =  1.9872
 KE= 7.900501356345D+01 PE=-2.554598868728D+02 EE= 6.174872041584D+01
 Leave Link  502 at Sat Apr 21 15:47:50 2012, MaxMem=  524288000 cpu:       2.4
 (Enter /share/apps/gaussian/g09/l801.exe)
 ExpMin= 1.22D-01 ExpMax= 6.67D+03 ExpMxC= 2.28D+02 IAcc=1 IRadAn=         1 AccDes= 0.00D+00
 HarFok:  IExCor=  205 AccDes= 0.00D+00 IRadAn=         1 IDoV=-2
 ScaDFX=  1.000000  1.000000  1.000000  1.000000
 Largest valence mixing into a core orbital is  9.59D-05
 Largest core mixing into a valence orbital is  4.20D-05
 Range of M.O.s used for correlation:     3    48
 NBasis=    48 NAE=     8 NBE=     8 NFC=     2 NFV=     0
 NROrb=     46 NOA=     6 NOB=     6 NVA=    40 NVB=    40
 Leave Link  801 at Sat Apr 21 15:47:50 2012, MaxMem=  524288000 cpu:       1.1
 (Enter /share/apps/gaussian/g09/l906.exe)
 Frozen-core derivative calculation, NFC=   2 NFV=   0.
 FulOut=F Deriv=T AODrv=T NAtomX=     6
   MMem=       20801  MDisk=           6 MDiskD=           6
  W3Min=       19200 MinDsk=       91675 NBas6D=          50
 NBas2D=        1329    NTT=        1275    LW2=     2040000
    MDV=   524232938 MDiskM=      145064 NBas2p=         504
 Fully direct method using O(ONN) memory.
 IMap=   1   2   3   4   5   6   7   8
 JobTyp=1 Pass  1:  I=   3 to   8 NPSUse=  8 ParTrn=T ParDer=T DoDerP=T.
 Spin components of T(2) and E(2):
     alpha-alpha T2 =       0.1004713798D-01 E2=     -0.2936939470D-01
     alpha-beta  T2 =       0.6820337243D-01 E2=     -0.2038966074D+00
     beta-beta   T2 =       0.1004713798D-01 E2=     -0.2936939470D-01
 The integrals were generated   1 times.
 ANorm=    0.1043215054D+01
 E2 =    -0.2626353968D+00 EUMP2 =    -0.78252576829598D+02
 Leave Link  906 at Sat Apr 21 15:47:50 2012, MaxMem=  524288000 cpu:       2.5
 (Enter /share/apps/gaussian/g09/l1002.exe)
 Minotr:  Closed shell wavefunction.
          Computing MP2/KS-MP2 derivatives.
          Using Z-Vector for PSCF gradient.
          Skipping F1 and S1 gradient terms here.
          IDoAtm=111111
          Frozen-core window.
          Direct CPHF calculation.
          Differentiating once with respect to electric field.
                with respect to dipole field.
          Differentiating once with respect to nuclear coordinates.
          Using symmetry in CPHF.
          Requested convergence is 1.0D-10 RMS, and 1.0D-09 maximum.
          NewPWx=F KeepS1=T KeepF1=T KeepIn=T MapXYZ=F SortEE=F KeepMc=T.
          MDV=     524287936 using IRadAn=       0.
          Keep R1 ints in memory in canonical form, NReq=1634667.
 Symmetry not used in FoFDir.
 MinBra= 0 MaxBra= 2 Meth= 1.
 IRaf=       0 NMat=   1 IRICut=       1 DoRegI=T DoRafI=F ISym2E= 0 JSym2E=0.
          Solving linear equations separately, MaxMat=       0.
          There are     1 degrees of freedom in the 1st order CPHF.  IDoFFX=0.
 LinEq1:  Iter=  0 NonCon=     1 RMS=4.62D-03 Max=4.10D-02
 AX will form     1 AO Fock derivatives at one time.
 LinEq1:  Iter=  1 NonCon=     1 RMS=7.12D-04 Max=5.95D-03
 LinEq1:  Iter=  2 NonCon=     1 RMS=1.74D-04 Max=1.92D-03
 LinEq1:  Iter=  3 NonCon=     1 RMS=2.68D-05 Max=2.20D-04
 LinEq1:  Iter=  4 NonCon=     1 RMS=3.13D-06 Max=2.41D-05
 LinEq1:  Iter=  5 NonCon=     1 RMS=2.70D-07 Max=1.77D-06
 LinEq1:  Iter=  6 NonCon=     1 RMS=2.09D-08 Max=1.19D-07
 LinEq1:  Iter=  7 NonCon=     1 RMS=1.59D-09 Max=9.15D-09
 LinEq1:  Iter=  8 NonCon=     0 RMS=7.75D-11 Max=4.63D-10
 Linear equations converged to 1.000D-10 1.000D-09 after     8 iterations.
 End of Minotr Frequency-dependent properties file   721 does not exist.
 End of Minotr Frequency-dependent properties file   722 does not exist.
 Leave Link 1002 at Sat Apr 21 15:47:51 2012, MaxMem=  524288000 cpu:       2.6
 (Enter /share/apps/gaussian/g09/l601.exe)
 Copying SCF densities to generalized density rwf, IOpCl= 0 IROHF=0.

 **********************************************************************

            Population analysis using the SCF density.

 **********************************************************************

 Orbital symmetries:
       Occupied  (AG) (B1U) (AG) (B1U) (B2U) (AG) (B3G) (B3U)
       Virtual   (B2G) (AG) (B2U) (B1U) (B3G) (B1U) (AG) (B3U)
                 (B2U) (AG) (B2G) (B2U) (B1U) (B3G) (AG) (B1U)
                 (B1G) (B1U) (AU) (B3U) (B3G) (AG) (B3G) (B2U)
                 (B2G) (AG) (B1U) (B1G) (B3U) (B2U) (B2G) (B1U)
                 (AU) (AG) (B3G) (B1U) (AG) (B2U) (B1U) (B3G)
 The electronic state is 1-AG.
 Alpha  occ. eigenvalues --  -11.19149 -11.18786  -1.08749  -0.80156  -0.69160
 Alpha  occ. eigenvalues --   -0.60526  -0.50788  -0.40557
 Alpha virt. eigenvalues --    0.20297   0.21265   0.23598   0.25731   0.31203
 Alpha virt. eigenvalues --    0.48375   0.54305   0.66159   0.67654   0.73228
 Alpha virt. eigenvalues --    0.82702   0.86616   0.89034   0.99558   1.03935
 Alpha virt. eigenvalues --    1.05926   1.12124   1.26603   1.33944   1.34400
 Alpha virt. eigenvalues --    1.38074   1.62876   1.75287   1.82183   1.91242
 Alpha virt. eigenvalues --    1.94988   2.03241   2.04271   2.05713   2.10580
 Alpha virt. eigenvalues --    2.27913   2.44236   2.55652   2.64453   2.70390
 Alpha virt. eigenvalues --    2.91503   3.04085   3.08152   3.47444   3.83779
          Condensed to atoms (all electrons):
              1          2          3          4          5          6
     1  C    4.389729   0.809681   0.410951   0.410951  -0.013327  -0.013327
     2  C    0.809681   4.389729  -0.013327  -0.013327   0.410951   0.410951
     3  H    0.410951  -0.013327   0.674163  -0.055972  -0.027572   0.014429
     4  H    0.410951  -0.013327  -0.055972   0.674163   0.014429  -0.027572
     5  H   -0.013327   0.410951  -0.027572   0.014429   0.674163  -0.055972
     6  H   -0.013327   0.410951   0.014429  -0.027572  -0.055972   0.674163
 Mulliken atomic charges:
              1
     1  C    0.005343
     2  C    0.005343
     3  H   -0.002672
     4  H   -0.002672
     5  H   -0.002672
     6  H   -0.002672
 Sum of Mulliken atomic charges =   0.00000
 Mulliken charges with hydrogens summed into heavy atoms:
              1
     1  C    0.000000
     2  C    0.000000
 Sum of Mulliken charges with hydrogens summed into heavy atoms =   0.00000
 Electronic spatial extent (au):  <R**2>=             72.3923
 Charge=              0.0000 electrons
 Dipole moment (field-independent basis, Debye):
    X=              0.0000    Y=              0.0000    Z=              0.0000  Tot=              0.0000
 Quadrupole moment (field-independent basis, Debye-Ang):
   XX=            -14.5811   YY=            -12.0035   ZZ=            -12.4126
   XY=              0.0000   XZ=              0.0000   YZ=              0.0000
 Traceless Quadrupole moment (field-independent basis, Debye-Ang):
   XX=             -1.5821   YY=              0.9956   ZZ=              0.5865
   XY=              0.0000   XZ=              0.0000   YZ=              0.0000
 Octapole moment (field-independent basis, Debye-Ang**2):
  XXX=              0.0000  YYY=              0.0000  ZZZ=              0.0000  XYY=              0.0000
  XXY=              0.0000  XXZ=              0.0000  XZZ=              0.0000  YZZ=              0.0000
  YYZ=              0.0000  XYZ=              0.0000
 Hexadecapole moment (field-independent basis, Debye-Ang**3):
 XXXX=            -15.6034 YYYY=            -23.3900 ZZZZ=            -56.1881 XXXY=              0.0000
 XXXZ=              0.0000 YYYX=              0.0000 YYYZ=              0.0000 ZZZX=              0.0000
 ZZZY=              0.0000 XXYY=             -6.9865 XXZZ=            -12.1852 YYZZ=            -12.0230
 XXYZ=              0.0000 YYXZ=              0.0000 ZZXY=              0.0000
 N-N= 3.671621146074D+01 E-N=-2.554598868484D+02  KE= 7.900501356345D+01
 Symmetry AG   KE= 3.812860197692D+01
 Symmetry B1G  KE= 1.409818721287D-33
 Symmetry B2G  KE= 8.907027788212D-33
 Symmetry B3G  KE= 2.232281433719D+00
 Symmetry AU   KE= 2.971467798591D-33
 Symmetry B1U  KE= 3.466752422312D+01
 Symmetry B2U  KE= 1.947791751193D+00
 Symmetry B3U  KE= 2.028814178495D+00
 No NMR shielding tensors so no spin-rotation constants.
 Leave Link  601 at Sat Apr 21 15:47:51 2012, MaxMem=  524288000 cpu:       2.1
 (Enter /share/apps/gaussian/g09/l701.exe)
 Compute integral first derivatives.
 ... and contract with generalized density number  2.
 Leave Link  701 at Sat Apr 21 15:47:52 2012, MaxMem=  524288000 cpu:       2.3
 (Enter /share/apps/gaussian/g09/l702.exe)
 L702 exits ... SP integral derivatives will be done elsewhere.
 Leave Link  702 at Sat Apr 21 15:47:52 2012, MaxMem=  524288000 cpu:       0.6
 (Enter /share/apps/gaussian/g09/l703.exe)
 Compute integral first derivatives, UseDBF=F ICtDFT=           0.
 Integral derivatives from FoFDir, PRISM(SPDF).
 Calling FoFJK, ICntrl=      2127 FMM=F ISym2X=1 I1Cent= 0 IOpClX= 0 NMat=1 NMatS=1 NMatT=0.
 FoFCou: FMM=F IPFlag=           0 FMFlag=      100000 FMFlg1=         800
         NFxFlg=           0 DoJE=F BraDBF=F KetDBF=F FulRan=T
         Omega=  0.000000  0.000000  1.000000  0.000000  0.000000 ICntrl=    2127 IOpCl=  0
         NMat0=    1 NMatS0=    1 NMatT0=    0 NMatD0=    1 NMtDS0=    0 NMtDT0=    0
         I1Cent=           0 NGrid=           0.
 Petite list used in FoFCou.
 Leave Link  703 at Sat Apr 21 15:47:52 2012, MaxMem=  524288000 cpu:       2.0
 (Enter /share/apps/gaussian/g09/l716.exe)
 Dipole        = 1.87988777D-17 2.22044605D-16-8.88178420D-16
 ***** Axes restored to original set *****
 -------------------------------------------------------------------
 Center     Atomic                   Forces (Hartrees/Bohr)
 Number     Number              X              Y              Z
 -------------------------------------------------------------------
      1        6           0.000000000    0.000000000    0.167418062
      2        6           0.000000000    0.000000000   -0.167418062
      3        1           0.000000000    0.072998927    0.051979337
      4        1           0.000000000   -0.072998927    0.051979337
      5        1           0.000000000    0.072998927   -0.051979337
      6        1           0.000000000   -0.072998927   -0.051979337
 -------------------------------------------------------------------
 Cartesian Forces:  Max     0.167418062 RMS     0.069992220
 Leave Link  716 at Sat Apr 21 15:47:52 2012, MaxMem=  524288000 cpu:       1.0
 (Enter /share/apps/gaussian/g09/l103.exe)

 GradGradGradGradGradGradGradGradGradGradGradGradGradGradGradGradGradGrad
 Berny optimization.
 Internal  Forces:  Max     0.271376736 RMS     0.083992910
 Search for a local minimum.
 Step number   1 out of a maximum of   25
 All quantities printed in internal units (Hartrees-Bohrs-Radians)
 RMS Force = .83993D-01 SwitMx=.10000D-02 MixMth= 1
 Mixed Optimization -- RFO/linear search
 Second derivative matrix not updated -- first step.
 The second derivative matrix:
                          R1        R2        R3        R4        R5
           R1           1.04823
           R2           0.00000   0.47845
           R3           0.00000   0.00000   0.47845
           R4           0.00000   0.00000   0.00000   0.47845
           R5           0.00000   0.00000   0.00000   0.00000   0.47845
           A1           0.00000   0.00000   0.00000   0.00000   0.00000
           A2           0.00000   0.00000   0.00000   0.00000   0.00000
           A3           0.00000   0.00000   0.00000   0.00000   0.00000
           A4           0.00000   0.00000   0.00000   0.00000   0.00000
           A5           0.00000   0.00000   0.00000   0.00000   0.00000
           A6           0.00000   0.00000   0.00000   0.00000   0.00000
           D1           0.00000   0.00000   0.00000   0.00000   0.00000
           D2           0.00000   0.00000   0.00000   0.00000   0.00000
           D3           0.00000   0.00000   0.00000   0.00000   0.00000
           D4           0.00000   0.00000   0.00000   0.00000   0.00000
                          A1        A2        A3        A4        A5
           A1           0.16000
           A2           0.00000   0.16000
           A3           0.00000   0.00000   0.16000
           A4           0.00000   0.00000   0.00000   0.16000
           A5           0.00000   0.00000   0.00000   0.00000   0.16000
           A6           0.00000   0.00000   0.00000   0.00000   0.00000
           D1           0.00000   0.00000   0.00000   0.00000   0.00000
           D2           0.00000   0.00000   0.00000   0.00000   0.00000
           D3           0.00000   0.00000   0.00000   0.00000   0.00000
           D4           0.00000   0.00000   0.00000   0.00000   0.00000
                          A6        D1        D2        D3        D4
           A6           0.16000
           D1           0.00000   0.04734
           D2           0.00000   0.00000   0.04734
           D3           0.00000   0.00000   0.00000   0.04734
           D4           0.00000   0.00000   0.00000   0.00000   0.04734
 ITU=  0
     Eigenvalues ---    0.04734   0.04734   0.04734   0.16000   0.16000
     Eigenvalues ---    0.16000   0.16000   0.47845   0.47845   0.47845
     Eigenvalues ---    0.47845   1.04823
 RFO step:  Lambda=-1.17782652D-01 EMin= 4.73437232D-02
 Linear search not attempted -- first point.
 Maximum step size (   0.300) exceeded in Quadratic search.
    -- Step size scaled by   0.779
 Iteration  1 RMS(Cart)=  0.10553110 RMS(Int)=  0.00078590
 Iteration  2 RMS(Cart)=  0.00090769 RMS(Int)=  0.00000040
 Iteration  3 RMS(Cart)=  0.00000040 RMS(Int)=  0.00000000
 ClnCor:  largest displacement from symmetrization is 9.40D-15 for atom     6.
 Variable       Old X    -DE/DX   Delta X   Delta X   Delta X     New X
                                 (Linear)    (Quad)   (Total)
    R1        2.26767   0.27138   0.00000   0.18141   0.18141   2.44908
    R2        1.88805   0.08921   0.00000   0.11663   0.11663   2.00467
    R3        1.88805   0.08921   0.00000   0.11663   0.11663   2.00467
    R4        1.88805   0.08921   0.00000   0.11663   0.11663   2.00467
    R5        1.88805   0.08921   0.00000   0.11663   0.11663   2.00467
    A1        2.09491   0.00533   0.00000   0.01496   0.01496   2.10987
    A2        2.09491   0.00533   0.00000   0.01496   0.01496   2.10987
    A3        2.09337  -0.01066   0.00000  -0.02992  -0.02992   2.06345
    A4        2.09491   0.00533   0.00000   0.01496   0.01496   2.10987
    A5        2.09491   0.00533   0.00000   0.01496   0.01496   2.10987
    A6        2.09337  -0.01066   0.00000  -0.02992  -0.02992   2.06345
    D1        0.00000   0.00000   0.00000   0.00000   0.00000   0.00000
    D2        3.14159   0.00000   0.00000   0.00000   0.00000   3.14159
    D3        3.14159   0.00000   0.00000   0.00000   0.00000   3.14159
    D4        0.00000   0.00000   0.00000   0.00000   0.00000   0.00000
         Item               Value     Threshold  Converged?
 Maximum Force            0.271377     0.000450     NO 
 RMS     Force            0.083993     0.000300     NO 
 Maximum Displacement     0.174915     0.001800     NO 
 RMS     Displacement     0.105913     0.001200     NO 
 Predicted change in Energy=-6.132671D-02
 GradGradGradGradGradGradGradGradGradGradGradGradGradGradGradGradGradGrad

 Leave Link  103 at Sat Apr 21 15:47:52 2012, MaxMem=  524288000 cpu:       0.4
 (Enter /share/apps/gaussian/g09/l202.exe)
                          Input orientation:                          
 ---------------------------------------------------------------------
 Center     Atomic      Atomic             Coordinates (Angstroms)
 Number     Number       Type             X           Y           Z
 ---------------------------------------------------------------------
      1          6           0        0.000000    0.000000    0.647998
      2          6           0        0.000000    0.000000   -0.647998
      3          1           0        0.000000    0.910389    1.192561
      4          1           0        0.000000   -0.910389    1.192561
      5          1           0        0.000000    0.910389   -1.192561
      6          1           0        0.000000   -0.910389   -1.192561
 ---------------------------------------------------------------------
                    Distance matrix (angstroms):
                    1          2          3          4          5
     1  C    0.000000
     2  C    1.295996   0.000000
     3  H    1.060828   2.053403   0.000000
     4  H    1.060828   2.053403   1.820777   0.000000
     5  H    2.053403   1.060828   2.385122   3.000673   0.000000
     6  H    2.053403   1.060828   3.000673   2.385122   1.820777
                    6
     6  H    0.000000
 Stoichiometry    C2H4
 Framework group  D2H[C2"(C.C),SG(H4)]
 Deg. of freedom     3
 Full point group                 D2H     NOp   8
 Largest Abelian subgroup         D2H     NOp   8
 Largest concise Abelian subgroup D2      NOp   4
                         Standard orientation:                         
 ---------------------------------------------------------------------
 Center     Atomic      Atomic             Coordinates (Angstroms)
 Number     Number       Type             X           Y           Z
 ---------------------------------------------------------------------
      1          6           0        0.000000    0.000000    0.647998
      2          6           0        0.000000    0.000000   -0.647998
      3          1           0        0.000000    0.910389    1.192561
      4          1           0        0.000000   -0.910389    1.192561
      5          1           0        0.000000    0.910389   -1.192561
      6          1           0        0.000000   -0.910389   -1.192561
 ---------------------------------------------------------------------
 Rotational constants (GHZ):    151.2580237     31.9638415     26.3876120
 Leave Link  202 at Sat Apr 21 15:47:52 2012, MaxMem=  524288000 cpu:       0.0
 (Enter /share/apps/gaussian/g09/l301.exe)
 Standard basis: CC-pVDZ (5D, 7F)
 Ernie: Thresh=  0.10000D-02 Tol=  0.10000D-05 Strict=F.
 Ernie:  4 primitive shells out of 64 were deleted.
 There are    11 symmetry adapted basis functions of AG  symmetry.
 There are     2 symmetry adapted basis functions of B1G symmetry.
 There are     4 symmetry adapted basis functions of B2G symmetry.
 There are     7 symmetry adapted basis functions of B3G symmetry.
 There are     2 symmetry adapted basis functions of AU  symmetry.
 There are    11 symmetry adapted basis functions of B1U symmetry.
 There are     7 symmetry adapted basis functions of B2U symmetry.
 There are     4 symmetry adapted basis functions of B3U symmetry.
 Integral buffers will be    131072 words long.
 Raffenetti 1 integral format.
 Two-electron integral symmetry is turned on.
    48 basis functions,    94 primitive gaussians,    50 cartesian basis functions
     8 alpha electrons        8 beta electrons
       nuclear repulsion energy        34.2341073019 Hartrees.
 IExCor=    0 DFT=F Ex=HF Corr=None ExCW=0 ScaHFX=  1.000000
 ScaDFX=  1.000000  1.000000  1.000000  1.000000 ScalE2=  1.000000  1.000000
 IRadAn=      0 IRanWt=     -1 IRanGd=            0 ICorTp=0
 NAtoms=    6 NActive=    6 NUniq=    2 SFac= 4.00D+00 NAtFMM=   50 NAOKFM=F Big=F
 Leave Link  301 at Sat Apr 21 15:47:53 2012, MaxMem=  524288000 cpu:       0.8
 (Enter /share/apps/gaussian/g09/l302.exe)
 NPDir=0 NMtPBC=     1 NCelOv=     1 NCel=       1 NClECP=     1 NCelD=      1
         NCelK=      1 NCelE2=     1 NClLst=     1 CellRange=     0.0.
 One-electron integrals computed using PRISM.
 One-electron integral symmetry used in STVInt
 NBasis=    48 RedAO= T  NBF=    11     2     4     7     2    11     7     4
 NBsUse=    48 1.00D-06 NBFU=    11     2     4     7     2    11     7     4
 Leave Link  302 at Sat Apr 21 15:47:53 2012, MaxMem=  524288000 cpu:       2.0
 (Enter /share/apps/gaussian/g09/l303.exe)
 DipDrv:  MaxL=1.
 Leave Link  303 at Sat Apr 21 15:47:53 2012, MaxMem=  524288000 cpu:       0.6
 (Enter /share/apps/gaussian/g09/l401.exe)
 Initial guess read from the read-write file.
 B after Tr=     0.000000    0.000000    0.000000
         Rot=    1.000000    0.000000    0.000000    0.000000 Ang=   0.00 deg.
 Guess basis will be translated and rotated to current coordinates.
 Initial guess orbital symmetries:
       Occupied  (AG) (B1U) (AG) (B1U) (B2U) (AG) (B3G) (B3U)
       Virtual   (B2G) (AG) (B2U) (B1U) (B3G) (B1U) (AG) (B3U)
                 (B2U) (AG) (B2G) (B2U) (B1U) (B3G) (AG) (B1U)
                 (B1G) (B1U) (AU) (B3U) (B3G) (AG) (B3G) (B2U)
                 (B2G) (AG) (B1U) (B1G) (B3U) (B2U) (B2G) (B1U)
                 (AU) (AG) (B3G) (B1U) (AG) (B2U) (B1U) (B3G)
 The electronic state of the initial guess is 1-AG.
 Generating alternative initial guess.
 Harris functional with IExCor=  205 diagonalized for initial guess.
 ExpMin= 1.22D-01 ExpMax= 6.67D+03 ExpMxC= 2.28D+02 IAcc=1 IRadAn=         1 AccDes= 0.00D+00
 HarFok:  IExCor=  205 AccDes= 0.00D+00 IRadAn=         1 IDoV= 1
 ScaDFX=  1.000000  1.000000  1.000000  1.000000
 FoFCou: FMM=F IPFlag=           0 FMFlag=      100000 FMFlg1=           0
         NFxFlg=           0 DoJE=T BraDBF=F KetDBF=T FulRan=T
         Omega=  0.000000  0.000000  1.000000  0.000000  0.000000 ICntrl=     500 IOpCl=  0
         NMat0=    1 NMatS0=    1 NMatT0=    0 NMatD0=    1 NMtDS0=    0 NMtDT0=    0
         I1Cent=           4 NGrid=           0.
 Petite list used in FoFCou.
 Harris En= -78.2213476111080    
 Leave Link  401 at Sat Apr 21 15:47:53 2012, MaxMem=  524288000 cpu:       2.7
 (Enter /share/apps/gaussian/g09/l502.exe)
 Closed shell SCF:
 Requested convergence on RMS density matrix=1.00D-08 within 128 cycles.
 Requested convergence on MAX density matrix=1.00D-06.
 Requested convergence on             energy=1.00D-06.
 No special actions if energy rises.
 Using DIIS extrapolation, IDIIS=  1040.
 Integral symmetry usage will be decided dynamically.
 Keep R1 ints in memory in canonical form, NReq=1660206.
 IEnd=       26742 IEndB=       26742 NGot=   524288000 MDV=   523466971
 LenX=   523466971 LenY=   523464030
 Symmetry not used in FoFDir.
 MinBra= 0 MaxBra= 2 Meth= 1.
 IRaf=       0 NMat=   1 IRICut=       1 DoRegI=T DoRafI=F ISym2E= 0 JSym2E=0.

 Cycle   1  Pass 1  IDiag  1:
 E= -78.0306602819118    
 DIIS: error= 1.12D-02 at cycle   1 NSaved=   1.
 NSaved= 1 IEnMin= 1 EnMin= -78.0306602819118     IErMin= 1 ErrMin= 1.12D-02
 ErrMax= 1.12D-02 EMaxC= 1.00D-01 BMatC= 5.22D-03 BMatP= 5.22D-03
 IDIUse=3 WtCom= 8.88D-01 WtEn= 1.12D-01
 Coeff-Com:  0.100D+01
 Coeff-En:   0.100D+01
 Coeff:      0.100D+01
 Recover alternate guess density for next cycle.
 RMSDP=5.67D-03 MaxDP=7.95D-02              OVMax= 0.00D+00

 Cycle   2  Pass 1  IDiag  1:
 E= -77.9025996174988     Delta-E=        0.128060664413 Rises=F Damp=F
 Switch densities from cycles 1 and 2 for lowest energy.
 DIIS: error= 7.34D-02 at cycle   2 NSaved=   2.
 NSaved= 2 IEnMin= 1 EnMin= -78.0306602819118     IErMin= 1 ErrMin= 1.12D-02
 ErrMax= 7.34D-02 EMaxC= 1.00D+00 BMatC= 1.28D-01 BMatP= 5.22D-03
 IDIUse=1 WtCom= 1.00D+00 WtEn= 0.00D+00
 Coeff-Com:  0.106D+01-0.647D-01
 Coeff:      0.106D+01-0.647D-01
 Gap=     0.569 Goal=   None    Shift=    0.000
 RMSDP=2.22D-03 MaxDP=1.58D-02 DE= 1.28D-01 OVMax= 2.25D-02

 Cycle   3  Pass 1  IDiag  1:
 E= -78.0372000950343     Delta-E=       -0.134600477535 Rises=F Damp=F
 DIIS: error= 2.19D-03 at cycle   3 NSaved=   3.
 NSaved= 3 IEnMin= 3 EnMin= -78.0372000950343     IErMin= 3 ErrMin= 2.19D-03
 ErrMax= 2.19D-03 EMaxC= 1.00D+00 BMatC= 2.12D-04 BMatP= 5.22D-03
 IDIUse=1 WtCom= 1.00D+00 WtEn= 0.00D+00
 Coeff-Com: -0.201D+00 0.360D-01 0.117D+01
 Coeff:     -0.201D+00 0.360D-01 0.117D+01
 Gap=     0.560 Goal=   None    Shift=    0.000
 RMSDP=4.73D-04 MaxDP=3.71D-03 DE=-1.35D-01 OVMax= 7.31D-03

 Cycle   4  Pass 1  IDiag  1:
 E= -78.0374990620639     Delta-E=       -0.000298967030 Rises=F Damp=F
 DIIS: error= 3.65D-04 at cycle   4 NSaved=   4.
 NSaved= 4 IEnMin= 4 EnMin= -78.0374990620639     IErMin= 4 ErrMin= 3.65D-04
 ErrMax= 3.65D-04 EMaxC= 1.00D+00 BMatC= 2.19D-06 BMatP= 2.12D-04
 IDIUse=1 WtCom= 1.00D+00 WtEn= 0.00D+00
 Coeff-Com:  0.523D-02-0.406D-02-0.831D-01 0.108D+01
 Coeff:      0.523D-02-0.406D-02-0.831D-01 0.108D+01
 Gap=     0.560 Goal=   None    Shift=    0.000
 RMSDP=3.90D-05 MaxDP=4.10D-04 DE=-2.99D-04 OVMax= 7.96D-04

 Cycle   5  Pass 1  IDiag  1:
 E= -78.0375028121712     Delta-E=       -0.000003750107 Rises=F Damp=F
 DIIS: error= 5.06D-05 at cycle   5 NSaved=   5.
 NSaved= 5 IEnMin= 5 EnMin= -78.0375028121712     IErMin= 5 ErrMin= 5.06D-05
 ErrMax= 5.06D-05 EMaxC= 1.00D+00 BMatC= 6.13D-08 BMatP= 2.19D-06
 IDIUse=1 WtCom= 1.00D+00 WtEn= 0.00D+00
 Coeff-Com:  0.245D-02 0.301D-03-0.936D-02-0.155D+00 0.116D+01
 Coeff:      0.245D-02 0.301D-03-0.936D-02-0.155D+00 0.116D+01
 Gap=     0.560 Goal=   None    Shift=    0.000
 RMSDP=7.08D-06 MaxDP=6.75D-05 DE=-3.75D-06 OVMax= 1.45D-04

 Cycle   6  Pass 1  IDiag  1:
 E= -78.0375029233342     Delta-E=       -0.000000111163 Rises=F Damp=F
 DIIS: error= 1.19D-05 at cycle   6 NSaved=   6.
 NSaved= 6 IEnMin= 6 EnMin= -78.0375029233342     IErMin= 6 ErrMin= 1.19D-05
 ErrMax= 1.19D-05 EMaxC= 1.00D+00 BMatC= 1.05D-09 BMatP= 6.13D-08
 IDIUse=1 WtCom= 1.00D+00 WtEn= 0.00D+00
 Coeff-Com: -0.349D-03-0.253D-04 0.210D-02 0.133D-01-0.190D+00 0.117D+01
 Coeff:     -0.349D-03-0.253D-04 0.210D-02 0.133D-01-0.190D+00 0.117D+01
 Gap=     0.560 Goal=   None    Shift=    0.000
 RMSDP=1.03D-06 MaxDP=1.53D-05 DE=-1.11D-07 OVMax= 3.02D-05

 Cycle   7  Pass 1  IDiag  1:
 E= -78.0375029259860     Delta-E=       -0.000000002652 Rises=F Damp=F
 DIIS: error= 2.31D-06 at cycle   7 NSaved=   7.
 NSaved= 7 IEnMin= 7 EnMin= -78.0375029259860     IErMin= 7 ErrMin= 2.31D-06
 ErrMax= 2.31D-06 EMaxC= 1.00D+00 BMatC= 4.36D-11 BMatP= 1.05D-09
 IDIUse=1 WtCom= 1.00D+00 WtEn= 0.00D+00
 Coeff-Com: -0.202D-04-0.234D-05 0.166D-04 0.207D-02-0.892D-02-0.196D+00
 Coeff-Com:  0.120D+01
 Coeff:     -0.202D-04-0.234D-05 0.166D-04 0.207D-02-0.892D-02-0.196D+00
 Coeff:      0.120D+01
 Gap=     0.560 Goal=   None    Shift=    0.000
 RMSDP=2.53D-07 MaxDP=3.56D-06 DE=-2.65D-09 OVMax= 7.00D-06

 Cycle   8  Pass 1  IDiag  1:
 E= -78.0375029261047     Delta-E=       -0.000000000119 Rises=F Damp=F
 DIIS: error= 1.57D-07 at cycle   8 NSaved=   8.
 NSaved= 8 IEnMin= 8 EnMin= -78.0375029261047     IErMin= 8 ErrMin= 1.57D-07
 ErrMax= 1.57D-07 EMaxC= 1.00D+00 BMatC= 6.67D-13 BMatP= 4.36D-11
 IDIUse=1 WtCom= 1.00D+00 WtEn= 0.00D+00
 Coeff-Com:  0.918D-05 0.129D-05-0.315D-04-0.675D-03 0.530D-02 0.247D-01
 Coeff-Com: -0.280D+00 0.125D+01
 Coeff:      0.918D-05 0.129D-05-0.315D-04-0.675D-03 0.530D-02 0.247D-01
 Coeff:     -0.280D+00 0.125D+01
 Gap=     0.560 Goal=   None    Shift=    0.000
 RMSDP=3.13D-08 MaxDP=2.83D-07 DE=-1.19D-10 OVMax= 6.10D-07

 Cycle   9  Pass 1  IDiag  1:
 E= -78.0375029261063     Delta-E=       -0.000000000002 Rises=F Damp=F
 DIIS: error= 1.59D-08 at cycle   9 NSaved=   9.
 NSaved= 9 IEnMin= 9 EnMin= -78.0375029261063     IErMin= 9 ErrMin= 1.59D-08
 ErrMax= 1.59D-08 EMaxC= 1.00D+00 BMatC= 4.60D-15 BMatP= 6.67D-13
 IDIUse=1 WtCom= 1.00D+00 WtEn= 0.00D+00
 Coeff-Com: -0.202D-05-0.204D-06 0.784D-05 0.120D-03-0.107D-02-0.358D-02
 Coeff-Com:  0.502D-01-0.270D+00 0.122D+01
 Coeff:     -0.202D-05-0.204D-06 0.784D-05 0.120D-03-0.107D-02-0.358D-02
 Coeff:      0.502D-01-0.270D+00 0.122D+01
 Gap=     0.560 Goal=   None    Shift=    0.000
 RMSDP=3.64D-09 MaxDP=2.66D-08 DE=-1.59D-12 OVMax= 4.09D-08

 SCF Done:  E(RHF) =  -78.0375029261     A.U. after    9 cycles
             Convg  =    0.3635D-08             -V/T =  1.9984
 KE= 7.816143769139D+01 PE=-2.498778127490D+02 EE= 5.944476482961D+01
 Leave Link  502 at Sat Apr 21 15:47:54 2012, MaxMem=  524288000 cpu:       2.0
 (Enter /share/apps/gaussian/g09/l801.exe)
 ExpMin= 1.22D-01 ExpMax= 6.67D+03 ExpMxC= 2.28D+02 IAcc=1 IRadAn=         1 AccDes= 0.00D+00
 HarFok:  IExCor=  205 AccDes= 0.00D+00 IRadAn=         1 IDoV=-2
 ScaDFX=  1.000000  1.000000  1.000000  1.000000
 Largest valence mixing into a core orbital is  1.13D-04
 Largest core mixing into a valence orbital is  4.57D-05
 Range of M.O.s used for correlation:     3    48
 NBasis=    48 NAE=     8 NBE=     8 NFC=     2 NFV=     0
 NROrb=     46 NOA=     6 NOB=     6 NVA=    40 NVB=    40
 Leave Link  801 at Sat Apr 21 15:47:54 2012, MaxMem=  524288000 cpu:       0.6
 (Enter /share/apps/gaussian/g09/l906.exe)
 Frozen-core derivative calculation, NFC=   2 NFV=   0.
 FulOut=F Deriv=T AODrv=T NAtomX=     6
   MMem=       20801  MDisk=           6 MDiskD=           6
  W3Min=       19200 MinDsk=       91675 NBas6D=          50
 NBas2D=        1329    NTT=        1275    LW2=     2040000
    MDV=   524233414 MDiskM=      145064 NBas2p=         504
 Fully direct method using O(ONN) memory.
 IMap=   1   2   3   4   5   6   7   8
 JobTyp=1 Pass  1:  I=   3 to   8 NPSUse=  8 ParTrn=T ParDer=T DoDerP=T.
 Spin components of T(2) and E(2):
     alpha-alpha T2 =       0.1086135909D-01 E2=     -0.2991655293D-01
     alpha-beta  T2 =       0.7579519950D-01 E2=     -0.2114643741D+00
     beta-beta   T2 =       0.1086135909D-01 E2=     -0.2991655293D-01
 The integrals were generated   1 times.
 ANorm=    0.1047624894D+01
 E2 =    -0.2712974800D+00 EUMP2 =    -0.78308800406098D+02
 Leave Link  906 at Sat Apr 21 15:47:54 2012, MaxMem=  524288000 cpu:       2.3
 (Enter /share/apps/gaussian/g09/l1002.exe)
 Minotr:  Closed shell wavefunction.
          Computing MP2/KS-MP2 derivatives.
          Using Z-Vector for PSCF gradient.
          Skipping F1 and S1 gradient terms here.
          IDoAtm=111111
          Frozen-core window.
          Direct CPHF calculation.
          Differentiating once with respect to electric field.
                with respect to dipole field.
          Differentiating once with respect to nuclear coordinates.
          Using symmetry in CPHF.
          Requested convergence is 1.0D-10 RMS, and 1.0D-09 maximum.
          NewPWx=F KeepS1=T KeepF1=T KeepIn=T MapXYZ=F SortEE=F KeepMc=T.
          MDV=     524287936 using IRadAn=       0.
          Keep R1 ints in memory in canonical form, NReq=1634667.
 Symmetry not used in FoFDir.
 MinBra= 0 MaxBra= 2 Meth= 1.
 IRaf=       0 NMat=   1 IRICut=       1 DoRegI=T DoRafI=F ISym2E= 0 JSym2E=0.
          Solving linear equations separately, MaxMat=       0.
          There are     1 degrees of freedom in the 1st order CPHF.  IDoFFX=0.
 LinEq1:  Iter=  0 NonCon=     1 RMS=5.38D-03 Max=5.75D-02
 AX will form     1 AO Fock derivatives at one time.
 LinEq1:  Iter=  1 NonCon=     1 RMS=1.14D-03 Max=9.08D-03
 LinEq1:  Iter=  2 NonCon=     1 RMS=2.27D-04 Max=2.25D-03
 LinEq1:  Iter=  3 NonCon=     1 RMS=3.54D-05 Max=2.91D-04
 LinEq1:  Iter=  4 NonCon=     1 RMS=3.96D-06 Max=2.57D-05
 LinEq1:  Iter=  5 NonCon=     1 RMS=3.00D-07 Max=2.15D-06
 LinEq1:  Iter=  6 NonCon=     1 RMS=2.29D-08 Max=1.27D-07
 LinEq1:  Iter=  7 NonCon=     1 RMS=1.79D-09 Max=1.08D-08
 LinEq1:  Iter=  8 NonCon=     1 RMS=1.02D-10 Max=6.41D-10
 LinEq1:  Iter=  9 NonCon=     0 RMS=1.30D-11 Max=1.15D-10
 Linear equations converged to 1.000D-10 1.000D-09 after     9 iterations.
 End of Minotr Frequency-dependent properties file   721 does not exist.
 End of Minotr Frequency-dependent properties file   722 does not exist.
 Leave Link 1002 at Sat Apr 21 15:47:54 2012, MaxMem=  524288000 cpu:       2.2
 (Enter /share/apps/gaussian/g09/l701.exe)
 Compute integral first derivatives.
 ... and contract with generalized density number  2.
 Leave Link  701 at Sat Apr 21 15:47:55 2012, MaxMem=  524288000 cpu:       1.7
 (Enter /share/apps/gaussian/g09/l702.exe)
 L702 exits ... SP integral derivatives will be done elsewhere.
 Leave Link  702 at Sat Apr 21 15:47:55 2012, MaxMem=  524288000 cpu:       0.6
 (Enter /share/apps/gaussian/g09/l703.exe)
 Compute integral first derivatives, UseDBF=F ICtDFT=           0.
 Integral derivatives from FoFDir, PRISM(SPDF).
 Calling FoFJK, ICntrl=      2127 FMM=F ISym2X=1 I1Cent= 0 IOpClX= 0 NMat=1 NMatS=1 NMatT=0.
 FoFCou: FMM=F IPFlag=           0 FMFlag=      100000 FMFlg1=         800
         NFxFlg=           0 DoJE=F BraDBF=F KetDBF=F FulRan=T
         Omega=  0.000000  0.000000  1.000000  0.000000  0.000000 ICntrl=    2127 IOpCl=  0
         NMat0=    1 NMatS0=    1 NMatT0=    0 NMatD0=    1 NMtDS0=    0 NMtDT0=    0
         I1Cent=           0 NGrid=           0.
 Petite list used in FoFCou.
 Leave Link  703 at Sat Apr 21 15:47:55 2012, MaxMem=  524288000 cpu:       1.8
 (Enter /share/apps/gaussian/g09/l716.exe)
 Dipole        = 5.03042077D-18-4.44089210D-16 0.00000000D+00
 ***** Axes restored to original set *****
 -------------------------------------------------------------------
 Center     Atomic                   Forces (Hartrees/Bohr)
 Number     Number              X              Y              Z
 -------------------------------------------------------------------
      1        6           0.000000000    0.000000000    0.038387348
      2        6           0.000000000    0.000000000   -0.038387348
      3        1           0.000000000    0.021425310    0.015767377
      4        1           0.000000000   -0.021425310    0.015767377
      5        1           0.000000000    0.021425310   -0.015767377
      6        1           0.000000000   -0.021425310   -0.015767377
 -------------------------------------------------------------------
 Cartesian Forces:  Max     0.038387348 RMS     0.017916152
 Leave Link  716 at Sat Apr 21 15:47:55 2012, MaxMem=  524288000 cpu:       0.7
 (Enter /share/apps/gaussian/g09/l103.exe)

 GradGradGradGradGradGradGradGradGradGradGradGradGradGradGradGradGradGrad
 Berny optimization.
 Using GEDIIS/GDIIS optimizer.
 Internal  Forces:  Max     0.069922102 RMS     0.022698651
 Search for a local minimum.
 Step number   2 out of a maximum of   25
 All quantities printed in internal units (Hartrees-Bohrs-Radians)
 RMS Force = .22699D-01 SwitMx=.10000D-02 MixMth= 1
 Mixed Optimization -- RFO/linear search
 Update second derivatives using D2CorX and points    1    2
 DE= -5.62D-02 DEPred=-6.13D-02 R= 9.17D-01
 SS=  1.41D+00  RLast= 3.00D-01 DXNew= 5.0454D-01 9.0000D-01
 Trust test= 9.17D-01 RLast= 3.00D-01 DXMaxT set to 5.05D-01
 The second derivative matrix:
                          R1        R2        R3        R4        R5
           R1           1.06565
           R2           0.01608   0.48658
           R3           0.01608   0.00813   0.48658
           R4           0.01608   0.00813   0.00813   0.48658
           R5           0.01608   0.00813   0.00813   0.00813   0.48658
           A1           0.00356   0.00124   0.00124   0.00124   0.00124
           A2           0.00356   0.00124   0.00124   0.00124   0.00124
           A3          -0.00712  -0.00249  -0.00249  -0.00249  -0.00249
           A4           0.00356   0.00124   0.00124   0.00124   0.00124
           A5           0.00356   0.00124   0.00124   0.00124   0.00124
           A6          -0.00712  -0.00249  -0.00249  -0.00249  -0.00249
           D1           0.00000   0.00000   0.00000   0.00000   0.00000
           D2           0.00000   0.00000   0.00000   0.00000   0.00000
           D3           0.00000   0.00000   0.00000   0.00000   0.00000
           D4           0.00000   0.00000   0.00000   0.00000   0.00000
                          A1        A2        A3        A4        A5
           A1           0.16011
           A2           0.00011   0.16011
           A3          -0.00021  -0.00021   0.16042
           A4           0.00011   0.00011  -0.00021   0.16011
           A5           0.00011   0.00011  -0.00021   0.00011   0.16011
           A6          -0.00021  -0.00021   0.00042  -0.00021  -0.00021
           D1           0.00000   0.00000   0.00000   0.00000   0.00000
           D2           0.00000   0.00000   0.00000   0.00000   0.00000
           D3           0.00000   0.00000   0.00000   0.00000   0.00000
           D4           0.00000   0.00000   0.00000   0.00000   0.00000
                          A6        D1        D2        D3        D4
           A6           0.16042
           D1           0.00000   0.04734
           D2           0.00000   0.00000   0.04734
           D3           0.00000   0.00000   0.00000   0.04734
           D4           0.00000   0.00000   0.00000   0.00000   0.04734
 ITU=  1  0
 Use linear search instead of GDIIS.
     Eigenvalues ---    0.04734   0.04734   0.04734   0.16000   0.16000
     Eigenvalues ---    0.16000   0.16090   0.47845   0.47845   0.47845
     Eigenvalues ---    0.50929   1.06769
 RFO step:  Lambda=-8.37511986D-04 EMin= 4.73437232D-02
 Quartic linear search produced a step of  0.54773.
 Iteration  1 RMS(Cart)=  0.06387153 RMS(Int)=  0.00060546
 Iteration  2 RMS(Cart)=  0.00072021 RMS(Int)=  0.00000024
 Iteration  3 RMS(Cart)=  0.00000025 RMS(Int)=  0.00000000
 ClnCor:  largest displacement from symmetrization is 5.07D-14 for atom     4.
 Variable       Old X    -DE/DX   Delta X   Delta X   Delta X     New X
                                 (Linear)    (Quad)   (Total)
    R1        2.44908   0.06992   0.09936  -0.01815   0.08121   2.53029
    R2        2.00467   0.02648   0.06388   0.01291   0.07679   2.08146
    R3        2.00467   0.02648   0.06388   0.01291   0.07679   2.08146
    R4        2.00467   0.02648   0.06388   0.01291   0.07679   2.08146
    R5        2.00467   0.02648   0.06388   0.01291   0.07679   2.08146
    A1        2.10987   0.00169   0.00819   0.00949   0.01769   2.12755
    A2        2.10987   0.00169   0.00819   0.00949   0.01769   2.12755
    A3        2.06345  -0.00339  -0.01639  -0.01899  -0.03537   2.02808
    A4        2.10987   0.00169   0.00819   0.00949   0.01769   2.12755
    A5        2.10987   0.00169   0.00819   0.00949   0.01769   2.12755
    A6        2.06345  -0.00339  -0.01639  -0.01899  -0.03537   2.02808
    D1        0.00000   0.00000   0.00000   0.00000   0.00000   0.00000
    D2        3.14159   0.00000   0.00000   0.00000   0.00000   3.14159
    D3        3.14159   0.00000   0.00000   0.00000   0.00000   3.14159
    D4        0.00000   0.00000   0.00000   0.00000   0.00000   0.00000
         Item               Value     Threshold  Converged?
 Maximum Force            0.069922     0.000450     NO 
 RMS     Force            0.022699     0.000300     NO 
 Maximum Displacement     0.111446     0.001800     NO 
 RMS     Displacement     0.064140     0.001200     NO 
 Predicted change in Energy=-3.785475D-03
 GradGradGradGradGradGradGradGradGradGradGradGradGradGradGradGradGradGrad

 Leave Link  103 at Sat Apr 21 15:47:55 2012, MaxMem=  524288000 cpu:       0.0
 (Enter /share/apps/gaussian/g09/l202.exe)
                          Input orientation:                          
 ---------------------------------------------------------------------
 Center     Atomic      Atomic             Coordinates (Angstroms)
 Number     Number       Type             X           Y           Z
 ---------------------------------------------------------------------
      1          6           0        0.000000    0.000000    0.669485
      2          6           0        0.000000    0.000000   -0.669485
      3          1           0        0.000000    0.935113    1.251536
      4          1           0        0.000000   -0.935113    1.251536
      5          1           0        0.000000    0.935113   -1.251536
      6          1           0        0.000000   -0.935113   -1.251536
 ---------------------------------------------------------------------
                    Distance matrix (angstroms):
                    1          2          3          4          5
     1  C    0.000000
     2  C    1.338970   0.000000
     3  H    1.101462   2.136529   0.000000
     4  H    1.101462   2.136529   1.870226   0.000000
     5  H    2.136529   1.101462   2.503071   3.124598   0.000000
     6  H    2.136529   1.101462   3.124598   2.503071   1.870226
                    6
     6  H    0.000000
 Stoichiometry    C2H4
 Framework group  D2H[C2"(C.C),SG(H4)]
 Deg. of freedom     3
 Full point group                 D2H     NOp   8
 Largest Abelian subgroup         D2H     NOp   8
 Largest concise Abelian subgroup D2      NOp   4
                         Standard orientation:                         
 ---------------------------------------------------------------------
 Center     Atomic      Atomic             Coordinates (Angstroms)
 Number     Number       Type             X           Y           Z
 ---------------------------------------------------------------------
      1          6           0        0.000000    0.000000    0.669485
      2          6           0        0.000000    0.000000   -0.669485
      3          1           0        0.000000    0.935113    1.251536
      4          1           0        0.000000   -0.935113    1.251536
      5          1           0        0.000000    0.935113   -1.251536
      6          1           0        0.000000   -0.935113   -1.251536
 ---------------------------------------------------------------------
 Rotational constants (GHZ):    143.3653117     29.6037627     24.5370606
 Leave Link  202 at Sat Apr 21 15:47:55 2012, MaxMem=  524288000 cpu:       0.0
 (Enter /share/apps/gaussian/g09/l301.exe)
 Standard basis: CC-pVDZ (5D, 7F)
 Ernie: Thresh=  0.10000D-02 Tol=  0.10000D-05 Strict=F.
 Ernie:  4 primitive shells out of 64 were deleted.
 There are    11 symmetry adapted basis functions of AG  symmetry.
 There are     2 symmetry adapted basis functions of B1G symmetry.
 There are     4 symmetry adapted basis functions of B2G symmetry.
 There are     7 symmetry adapted basis functions of B3G symmetry.
 There are     2 symmetry adapted basis functions of AU  symmetry.
 There are    11 symmetry adapted basis functions of B1U symmetry.
 There are     7 symmetry adapted basis functions of B2U symmetry.
 There are     4 symmetry adapted basis functions of B3U symmetry.
 Integral buffers will be    131072 words long.
 Raffenetti 1 integral format.
 Two-electron integral symmetry is turned on.
    48 basis functions,    94 primitive gaussians,    50 cartesian basis functions
     8 alpha electrons        8 beta electrons
       nuclear repulsion energy        33.0297657023 Hartrees.
 IExCor=    0 DFT=F Ex=HF Corr=None ExCW=0 ScaHFX=  1.000000
 ScaDFX=  1.000000  1.000000  1.000000  1.000000 ScalE2=  1.000000  1.000000
 IRadAn=      0 IRanWt=     -1 IRanGd=            0 ICorTp=0
 NAtoms=    6 NActive=    6 NUniq=    2 SFac= 4.00D+00 NAtFMM=   50 NAOKFM=F Big=F
 Leave Link  301 at Sat Apr 21 15:47:55 2012, MaxMem=  524288000 cpu:       0.9
 (Enter /share/apps/gaussian/g09/l302.exe)
 NPDir=0 NMtPBC=     1 NCelOv=     1 NCel=       1 NClECP=     1 NCelD=      1
         NCelK=      1 NCelE2=     1 NClLst=     1 CellRange=     0.0.
 One-electron integrals computed using PRISM.
 One-electron integral symmetry used in STVInt
 NBasis=    48 RedAO= T  NBF=    11     2     4     7     2    11     7     4
 NBsUse=    48 1.00D-06 NBFU=    11     2     4     7     2    11     7     4
 Leave Link  302 at Sat Apr 21 15:47:56 2012, MaxMem=  524288000 cpu:       1.8
 (Enter /share/apps/gaussian/g09/l303.exe)
 DipDrv:  MaxL=1.
 Leave Link  303 at Sat Apr 21 15:47:56 2012, MaxMem=  524288000 cpu:       0.5
 (Enter /share/apps/gaussian/g09/l401.exe)
 Initial guess read from the read-write file.
 B after Tr=     0.000000    0.000000    0.000000
         Rot=    1.000000    0.000000    0.000000    0.000000 Ang=   0.00 deg.
 Guess basis will be translated and rotated to current coordinates.
 Initial guess orbital symmetries:
       Occupied  (AG) (B1U) (AG) (B1U) (B2U) (AG) (B3G) (B3U)
       Virtual   (B2G) (AG) (B2U) (B1U) (B3G) (B1U) (AG) (B2U)
                 (B3U) (AG) (B1U) (B2G) (B2U) (B3G) (B1U) (AG)
                 (B1G) (B1U) (B3G) (B3U) (AU) (AG) (B3G) (B2U)
                 (B2G) (AG) (B1U) (B2U) (B1G) (B3U) (B2G) (B1U)
                 (AU) (B3G) (AG) (B1U) (AG) (B2U) (B1U) (B3G)
 The electronic state of the initial guess is 1-AG.
 Generating alternative initial guess.
 Harris functional with IExCor=  205 diagonalized for initial guess.
 ExpMin= 1.22D-01 ExpMax= 6.67D+03 ExpMxC= 2.28D+02 IAcc=1 IRadAn=         1 AccDes= 0.00D+00
 HarFok:  IExCor=  205 AccDes= 0.00D+00 IRadAn=         1 IDoV= 1
 ScaDFX=  1.000000  1.000000  1.000000  1.000000
 FoFCou: FMM=F IPFlag=           0 FMFlag=      100000 FMFlg1=           0
         NFxFlg=           0 DoJE=T BraDBF=F KetDBF=T FulRan=T
         Omega=  0.000000  0.000000  1.000000  0.000000  0.000000 ICntrl=     500 IOpCl=  0
         NMat0=    1 NMatS0=    1 NMatT0=    0 NMatD0=    1 NMtDS0=    0 NMtDT0=    0
         I1Cent=           4 NGrid=           0.
 Petite list used in FoFCou.
 Harris En= -78.2080282715542    
 Leave Link  401 at Sat Apr 21 15:47:56 2012, MaxMem=  524288000 cpu:       2.8
 (Enter /share/apps/gaussian/g09/l502.exe)
 Closed shell SCF:
 Requested convergence on RMS density matrix=1.00D-08 within 128 cycles.
 Requested convergence on MAX density matrix=1.00D-06.
 Requested convergence on             energy=1.00D-06.
 No special actions if energy rises.
 Using DIIS extrapolation, IDIIS=  1040.
 Integral symmetry usage will be decided dynamically.
 Keep R1 ints in memory in canonical form, NReq=1660206.
 IEnd=       26742 IEndB=       26742 NGot=   524288000 MDV=   523466971
 LenX=   523466971 LenY=   523464030
 Symmetry not used in FoFDir.
 MinBra= 0 MaxBra= 2 Meth= 1.
 IRaf=       0 NMat=   1 IRICut=       1 DoRegI=T DoRafI=F ISym2E= 0 JSym2E=0.

 Cycle   1  Pass 1  IDiag  1:
 E= -78.0371445805658    
 DIIS: error= 5.63D-03 at cycle   1 NSaved=   1.
 NSaved= 1 IEnMin= 1 EnMin= -78.0371445805658     IErMin= 1 ErrMin= 5.63D-03
 ErrMax= 5.63D-03 EMaxC= 1.00D-01 BMatC= 1.28D-03 BMatP= 1.28D-03
 IDIUse=3 WtCom= 9.44D-01 WtEn= 5.63D-02
 Coeff-Com:  0.100D+01
 Coeff-En:   0.100D+01
 Coeff:      0.100D+01
 Gap=     0.541 Goal=   None    Shift=    0.000
 GapD=    0.541 DampG=2.000 DampE=1.000 DampFc=2.0000 IDamp=-1.
 RMSDP=1.12D-03 MaxDP=1.04D-02              OVMax= 1.30D-02

 Cycle   2  Pass 1  IDiag  1:
 E= -78.0387583695551     Delta-E=       -0.001613788989 Rises=F Damp=F
 DIIS: error= 1.46D-03 at cycle   2 NSaved=   2.
 NSaved= 2 IEnMin= 2 EnMin= -78.0387583695551     IErMin= 2 ErrMin= 1.46D-03
 ErrMax= 1.46D-03 EMaxC= 1.00D-01 BMatC= 7.83D-05 BMatP= 1.28D-03
 IDIUse=3 WtCom= 9.85D-01 WtEn= 1.46D-02
 Coeff-Com: -0.144D-01 0.101D+01
 Coeff-En:   0.000D+00 0.100D+01
 Coeff:     -0.142D-01 0.101D+01
 Gap=     0.541 Goal=   None    Shift=    0.000
 RMSDP=2.23D-04 MaxDP=2.10D-03 DE=-1.61D-03 OVMax= 3.81D-03

 Cycle   3  Pass 1  IDiag  1:
 E= -78.0388451364886     Delta-E=       -0.000086766933 Rises=F Damp=F
 DIIS: error= 5.37D-04 at cycle   3 NSaved=   3.
 NSaved= 3 IEnMin= 3 EnMin= -78.0388451364886     IErMin= 3 ErrMin= 5.37D-04
 ErrMax= 5.37D-04 EMaxC= 1.00D-01 BMatC= 7.48D-06 BMatP= 7.83D-05
 IDIUse=3 WtCom= 9.95D-01 WtEn= 5.37D-03
 Coeff-Com: -0.567D-01 0.180D+00 0.877D+00
 Coeff-En:   0.000D+00 0.000D+00 0.100D+01
 Coeff:     -0.564D-01 0.179D+00 0.878D+00
 Gap=     0.540 Goal=   None    Shift=    0.000
 RMSDP=5.18D-05 MaxDP=6.85D-04 DE=-8.68D-05 OVMax= 1.06D-03

 Cycle   4  Pass 1  IDiag  1:
 E= -78.0388546671802     Delta-E=       -0.000009530692 Rises=F Damp=F
 DIIS: error= 6.10D-05 at cycle   4 NSaved=   4.
 NSaved= 4 IEnMin= 4 EnMin= -78.0388546671802     IErMin= 4 ErrMin= 6.10D-05
 ErrMax= 6.10D-05 EMaxC= 1.00D-01 BMatC= 7.40D-08 BMatP= 7.48D-06
 IDIUse=1 WtCom= 1.00D+00 WtEn= 0.00D+00
 Coeff-Com:  0.676D-02-0.406D-01-0.105D+00 0.114D+01
 Coeff:      0.676D-02-0.406D-01-0.105D+00 0.114D+01
 Gap=     0.540 Goal=   None    Shift=    0.000
 RMSDP=6.56D-06 MaxDP=7.95D-05 DE=-9.53D-06 OVMax= 1.68D-04

 Cycle   5  Pass 1  IDiag  1:
 E= -78.0388547881610     Delta-E=       -0.000000120981 Rises=F Damp=F
 DIIS: error= 6.59D-06 at cycle   5 NSaved=   5.
 NSaved= 5 IEnMin= 5 EnMin= -78.0388547881610     IErMin= 5 ErrMin= 6.59D-06
 ErrMax= 6.59D-06 EMaxC= 1.00D-01 BMatC= 1.06D-09 BMatP= 7.40D-08
 IDIUse=1 WtCom= 1.00D+00 WtEn= 0.00D+00
 Coeff-Com:  0.394D-03-0.483D-03-0.489D-02-0.858D-01 0.109D+01
 Coeff:      0.394D-03-0.483D-03-0.489D-02-0.858D-01 0.109D+01
 Gap=     0.540 Goal=   None    Shift=    0.000
 RMSDP=1.22D-06 MaxDP=1.02D-05 DE=-1.21D-07 OVMax= 1.96D-05

 Cycle   6  Pass 1  IDiag  1:
 E= -78.0388547904391     Delta-E=       -0.000000002278 Rises=F Damp=F
 DIIS: error= 1.43D-06 at cycle   6 NSaved=   6.
 NSaved= 6 IEnMin= 6 EnMin= -78.0388547904391     IErMin= 6 ErrMin= 1.43D-06
 ErrMax= 1.43D-06 EMaxC= 1.00D-01 BMatC= 4.10D-11 BMatP= 1.06D-09
 IDIUse=1 WtCom= 1.00D+00 WtEn= 0.00D+00
 Coeff-Com: -0.181D-03 0.608D-03 0.287D-02 0.510D-02-0.296D+00 0.129D+01
 Coeff:     -0.181D-03 0.608D-03 0.287D-02 0.510D-02-0.296D+00 0.129D+01
 Gap=     0.540 Goal=   None    Shift=    0.000
 RMSDP=3.17D-07 MaxDP=2.66D-06 DE=-2.28D-09 OVMax= 4.52D-06

 Cycle   7  Pass 1  IDiag  1:
 E= -78.0388547905408     Delta-E=       -0.000000000102 Rises=F Damp=F
 DIIS: error= 1.57D-07 at cycle   7 NSaved=   7.
 NSaved= 7 IEnMin= 7 EnMin= -78.0388547905408     IErMin= 7 ErrMin= 1.57D-07
 ErrMax= 1.57D-07 EMaxC= 1.00D-01 BMatC= 7.74D-13 BMatP= 4.10D-11
 IDIUse=1 WtCom= 1.00D+00 WtEn= 0.00D+00
 Coeff-Com:  0.466D-04-0.163D-03-0.773D-03-0.266D-03 0.727D-01-0.403D+00
 Coeff-Com:  0.133D+01
 Coeff:      0.466D-04-0.163D-03-0.773D-03-0.266D-03 0.727D-01-0.403D+00
 Coeff:      0.133D+01
 Gap=     0.540 Goal=   None    Shift=    0.000
 RMSDP=4.15D-08 MaxDP=4.08D-07 DE=-1.02D-10 OVMax= 6.43D-07

 Cycle   8  Pass 1  IDiag  1:
 E= -78.0388547905426     Delta-E=       -0.000000000002 Rises=F Damp=F
 DIIS: error= 1.48D-08 at cycle   8 NSaved=   8.
 NSaved= 8 IEnMin= 8 EnMin= -78.0388547905426     IErMin= 8 ErrMin= 1.48D-08
 ErrMax= 1.48D-08 EMaxC= 1.00D-01 BMatC= 4.37D-15 BMatP= 7.74D-13
 IDIUse=1 WtCom= 1.00D+00 WtEn= 0.00D+00
 Coeff-Com: -0.728D-05 0.263D-04 0.120D-03-0.101D-04-0.111D-01 0.657D-01
 Coeff-Com: -0.261D+00 0.121D+01
 Coeff:     -0.728D-05 0.263D-04 0.120D-03-0.101D-04-0.111D-01 0.657D-01
 Coeff:     -0.261D+00 0.121D+01
 Gap=     0.540 Goal=   None    Shift=    0.000
 RMSDP=2.19D-09 MaxDP=1.85D-08 DE=-1.82D-12 OVMax= 4.51D-08

 SCF Done:  E(RHF) =  -78.0388547905     A.U. after    8 cycles
             Convg  =    0.2192D-08             -V/T =  2.0035
 KE= 7.776588881488D+01 PE=-2.471485719671D+02 EE= 5.831406265936D+01
 Leave Link  502 at Sat Apr 21 15:47:57 2012, MaxMem=  524288000 cpu:       1.9
 (Enter /share/apps/gaussian/g09/l801.exe)
 ExpMin= 1.22D-01 ExpMax= 6.67D+03 ExpMxC= 2.28D+02 IAcc=1 IRadAn=         1 AccDes= 0.00D+00
 HarFok:  IExCor=  205 AccDes= 0.00D+00 IRadAn=         1 IDoV=-2
 ScaDFX=  1.000000  1.000000  1.000000  1.000000
 Largest valence mixing into a core orbital is  1.22D-04
 Largest core mixing into a valence orbital is  4.69D-05
 Range of M.O.s used for correlation:     3    48
 NBasis=    48 NAE=     8 NBE=     8 NFC=     2 NFV=     0
 NROrb=     46 NOA=     6 NOB=     6 NVA=    40 NVB=    40
 Leave Link  801 at Sat Apr 21 15:47:57 2012, MaxMem=  524288000 cpu:       0.5
 (Enter /share/apps/gaussian/g09/l906.exe)
 Frozen-core derivative calculation, NFC=   2 NFV=   0.
 FulOut=F Deriv=T AODrv=T NAtomX=     6
   MMem=       20801  MDisk=           6 MDiskD=           6
  W3Min=       19200 MinDsk=       91675 NBas6D=          50
 NBas2D=        1329    NTT=        1275    LW2=     2040000
    MDV=   524233638 MDiskM=      145064 NBas2p=         504
 Fully direct method using O(ONN) memory.
 IMap=   1   2   3   4   5   6   7   8
 JobTyp=1 Pass  1:  I=   3 to   8 NPSUse=  8 ParTrn=T ParDer=T DoDerP=T.
 Spin components of T(2) and E(2):
     alpha-alpha T2 =       0.1134350996D-01 E2=     -0.3023940457D-01
     alpha-beta  T2 =       0.8037345231D-01 E2=     -0.2157698320D+00
     beta-beta   T2 =       0.1134350996D-01 E2=     -0.3023940457D-01
 The integrals were generated   1 times.
 ANorm=    0.1050266858D+01
 E2 =    -0.2762486411D+00 EUMP2 =    -0.78315103431677D+02
 Leave Link  906 at Sat Apr 21 15:47:57 2012, MaxMem=  524288000 cpu:       2.4
 (Enter /share/apps/gaussian/g09/l1002.exe)
 Minotr:  Closed shell wavefunction.
          Computing MP2/KS-MP2 derivatives.
          Using Z-Vector for PSCF gradient.
          Skipping F1 and S1 gradient terms here.
          IDoAtm=111111
          Frozen-core window.
          Direct CPHF calculation.
          Differentiating once with respect to electric field.
                with respect to dipole field.
          Differentiating once with respect to nuclear coordinates.
          Using symmetry in CPHF.
          Requested convergence is 1.0D-10 RMS, and 1.0D-09 maximum.
          NewPWx=F KeepS1=T KeepF1=T KeepIn=T MapXYZ=F SortEE=F KeepMc=T.
          MDV=     524287936 using IRadAn=       0.
          Keep R1 ints in memory in canonical form, NReq=1634667.
 Symmetry not used in FoFDir.
 MinBra= 0 MaxBra= 2 Meth= 1.
 IRaf=       0 NMat=   1 IRICut=       1 DoRegI=T DoRafI=F ISym2E= 0 JSym2E=0.
          Solving linear equations separately, MaxMat=       0.
          There are     1 degrees of freedom in the 1st order CPHF.  IDoFFX=0.
 LinEq1:  Iter=  0 NonCon=     1 RMS=5.79D-03 Max=6.50D-02
 AX will form     1 AO Fock derivatives at one time.
 LinEq1:  Iter=  1 NonCon=     1 RMS=1.38D-03 Max=1.08D-02
 LinEq1:  Iter=  2 NonCon=     1 RMS=2.59D-04 Max=2.38D-03
 LinEq1:  Iter=  3 NonCon=     1 RMS=4.01D-05 Max=3.19D-04
 LinEq1:  Iter=  4 NonCon=     1 RMS=4.44D-06 Max=2.77D-05
 LinEq1:  Iter=  5 NonCon=     1 RMS=3.20D-07 Max=2.41D-06
 LinEq1:  Iter=  6 NonCon=     1 RMS=2.40D-08 Max=1.37D-07
 LinEq1:  Iter=  7 NonCon=     1 RMS=1.93D-09 Max=1.13D-08
 LinEq1:  Iter=  8 NonCon=     1 RMS=1.22D-10 Max=7.47D-10
 LinEq1:  Iter=  9 NonCon=     0 RMS=1.59D-11 Max=1.31D-10
 Linear equations converged to 1.000D-10 1.000D-09 after     9 iterations.
 End of Minotr Frequency-dependent properties file   721 does not exist.
 End of Minotr Frequency-dependent properties file   722 does not exist.
 Leave Link 1002 at Sat Apr 21 15:47:57 2012, MaxMem=  524288000 cpu:       2.1
 (Enter /share/apps/gaussian/g09/l701.exe)
 Compute integral first derivatives.
 ... and contract with generalized density number  2.
 Leave Link  701 at Sat Apr 21 15:47:58 2012, MaxMem=  524288000 cpu:       1.7
 (Enter /share/apps/gaussian/g09/l702.exe)
 L702 exits ... SP integral derivatives will be done elsewhere.
 Leave Link  702 at Sat Apr 21 15:47:58 2012, MaxMem=  524288000 cpu:       0.6
 (Enter /share/apps/gaussian/g09/l703.exe)
 Compute integral first derivatives, UseDBF=F ICtDFT=           0.
 Integral derivatives from FoFDir, PRISM(SPDF).
 Calling FoFJK, ICntrl=      2127 FMM=F ISym2X=1 I1Cent= 0 IOpClX= 0 NMat=1 NMatS=1 NMatT=0.
 FoFCou: FMM=F IPFlag=           0 FMFlag=      100000 FMFlg1=         800
         NFxFlg=           0 DoJE=F BraDBF=F KetDBF=F FulRan=T
         Omega=  0.000000  0.000000  1.000000  0.000000  0.000000 ICntrl=    2127 IOpCl=  0
         NMat0=    1 NMatS0=    1 NMatT0=    0 NMatD0=    1 NMtDS0=    0 NMtDT0=    0
         I1Cent=           0 NGrid=           0.
 Petite list used in FoFCou.
 Leave Link  703 at Sat Apr 21 15:47:58 2012, MaxMem=  524288000 cpu:       2.0
 (Enter /share/apps/gaussian/g09/l716.exe)
 Dipole        =-2.53373072D-18 0.00000000D+00 8.88178420D-16
 ***** Axes restored to original set *****
 -------------------------------------------------------------------
 Center     Atomic                   Forces (Hartrees/Bohr)
 Number     Number              X              Y              Z
 -------------------------------------------------------------------
      1        6           0.000000000    0.000000000    0.013260102
      2        6           0.000000000    0.000000000   -0.013260102
      3        1           0.000000000   -0.003077873   -0.003357141
      4        1           0.000000000    0.003077873   -0.003357141
      5        1           0.000000000   -0.003077873    0.003357141
      6        1           0.000000000    0.003077873    0.003357141
 -------------------------------------------------------------------
 Cartesian Forces:  Max     0.013260102 RMS     0.004913900
 Leave Link  716 at Sat Apr 21 15:47:58 2012, MaxMem=  524288000 cpu:       0.4
 (Enter /share/apps/gaussian/g09/l103.exe)

 GradGradGradGradGradGradGradGradGradGradGradGradGradGradGradGradGradGrad
 Berny optimization.
 Using GEDIIS/GDIIS optimizer.
 Internal  Forces:  Max     0.006545821 RMS     0.002926692
 Search for a local minimum.
 Step number   3 out of a maximum of   25
 All quantities printed in internal units (Hartrees-Bohrs-Radians)
 RMS Force = .29267D-02 SwitMx=.10000D-02 MixMth= 1
 Mixed Optimization -- RFO/linear search
 Update second derivatives using D2CorX and points    1    2    3
 DE= -6.30D-03 DEPred=-3.79D-03 R= 1.67D+00
 SS=  1.41D+00  RLast= 1.84D-01 DXNew= 8.4853D-01 5.5263D-01
 Trust test= 1.67D+00 RLast= 1.84D-01 DXMaxT set to 5.53D-01
 The second derivative matrix:
                          R1        R2        R3        R4        R5
           R1           0.91979
           R2          -0.03584   0.46916
           R3          -0.03584  -0.00929   0.46916
           R4          -0.03584  -0.00929  -0.00929   0.46916
           R5          -0.03584  -0.00929  -0.00929  -0.00929   0.46916
           A1          -0.00147  -0.00051  -0.00051  -0.00051  -0.00051
           A2          -0.00147  -0.00051  -0.00051  -0.00051  -0.00051
           A3           0.00294   0.00101   0.00101   0.00101   0.00101
           A4          -0.00147  -0.00051  -0.00051  -0.00051  -0.00051
           A5          -0.00147  -0.00051  -0.00051  -0.00051  -0.00051
           A6           0.00294   0.00101   0.00101   0.00101   0.00101
           D1           0.00000   0.00000   0.00000   0.00000   0.00000
           D2           0.00000   0.00000   0.00000   0.00000   0.00000
           D3           0.00000   0.00000   0.00000   0.00000   0.00000
           D4           0.00000   0.00000   0.00000   0.00000   0.00000
                          A1        A2        A3        A4        A5
           A1           0.15994
           A2          -0.00006   0.15994
           A3           0.00012   0.00012   0.15976
           A4          -0.00006  -0.00006   0.00012   0.15994
           A5          -0.00006  -0.00006   0.00012  -0.00006   0.15994
           A6           0.00012   0.00012  -0.00024   0.00012   0.00012
           D1           0.00000   0.00000   0.00000   0.00000   0.00000
           D2           0.00000   0.00000   0.00000   0.00000   0.00000
           D3           0.00000   0.00000   0.00000   0.00000   0.00000
           D4           0.00000   0.00000   0.00000   0.00000   0.00000
                          A6        D1        D2        D3        D4
           A6           0.15976
           D1           0.00000   0.04734
           D2           0.00000   0.00000   0.04734
           D3           0.00000   0.00000   0.00000   0.04734
           D4           0.00000   0.00000   0.00000   0.00000   0.04734
 ITU=  1  1  0
 Use linear search instead of GDIIS.
     Eigenvalues ---    0.04734   0.04734   0.04734   0.15918   0.16000
     Eigenvalues ---    0.16000   0.16000   0.43086   0.47845   0.47845
     Eigenvalues ---    0.47845   0.93032
 RFO step:  Lambda=-2.03185188D-04 EMin= 4.73437232D-02
 Quartic linear search produced a step of -0.07318.
 Iteration  1 RMS(Cart)=  0.00689509 RMS(Int)=  0.00003071
 Iteration  2 RMS(Cart)=  0.00003420 RMS(Int)=  0.00000000
 Iteration  3 RMS(Cart)=  0.00000000 RMS(Int)=  0.00000000
 ClnCor:  largest displacement from symmetrization is 3.41D-14 for atom     1.
 Variable       Old X    -DE/DX   Delta X   Delta X   Delta X     New X
                                 (Linear)    (Quad)   (Total)
    R1        2.53029   0.00655  -0.00594   0.01106   0.00512   2.53541
    R2        2.08146  -0.00439  -0.00562  -0.00457  -0.01019   2.07127
    R3        2.08146  -0.00439  -0.00562  -0.00457  -0.01019   2.07127
[...]
 Sum of electronic and thermal Free Energies=          -78.284817
 
                     E (Thermal)             CV                S
                      KCal/Mol        Cal/Mol-Kelvin    Cal/Mol-Kelvin
 Total                   34.162              8.164             52.406
 Electronic               0.000              0.000              0.000
 Translational            0.889              2.981             35.927
 Rotational               0.889              2.981             15.920
 Vibrational             32.384              2.202              0.559
                       Q            Log10(Q)             Ln(Q)
 Total Bot       0.950934D-14        -14.021850        -32.286502
 Total V=0       0.412431D+10          9.615351         22.140164
 Vib (Bot)       0.242363D-23        -23.615534        -54.376776
 Vib (V=0)       0.105116D+01          0.021667          0.049890
 Electronic      0.100000D+01          0.000000          0.000000
 Translational   0.583338D+07          6.765920         15.579107
 Rotational      0.672611D+03          2.827764          6.511167
 
                                                      c2h4 Frequency MP2/cc-pVDZ
                                                             IR Spectrum
 
     33  33                                                         1       1   1    1      1                                        
     32  21                                                         6       4   3    2      0  9 9   8                               
     18  08                                                         8       6   7    3      6  7 3   2                               
     26  78                                                         7       7   6    6      5  3 6   5                               
 
     X    X                                                                 X                  X     X                               
     X    X                                                                 X                  X                                     
     X                                                                                         X                                     
     X                                                                                         X                                     
                                                                                               X                                     
                                                                                               X                                     
                                                                                               X                                     
                                                                                               X                                     
                                                                                               X                                     
                                                                                               X                                     
                                                                                               X                                     
                                                                                               X                                     
                                                                                               X                                     
                                                                                               X                                     
                                                                                               X                                     
                                                                                               X                                     
                                                                                               X                                     
                                                                                               X                                     
                                                                                               X                                     
                                                                                               X                                     
 
 ***** Axes restored to original set *****
 -------------------------------------------------------------------
 Center     Atomic                   Forces (Hartrees/Bohr)
 Number     Number              X              Y              Z
 -------------------------------------------------------------------
      1        6           0.000000000    0.000000000    0.000008998
      2        6           0.000000000    0.000000000   -0.000008998
      3        1           0.000000000    0.000027100    0.000008016
      4        1           0.000000000   -0.000027100    0.000008016
      5        1           0.000000000    0.000027100   -0.000008016
      6        1           0.000000000   -0.000027100   -0.000008016
 -------------------------------------------------------------------
 Cartesian Forces:  Max     0.000027100 RMS     0.000013655
 Force constants in Cartesian coordinates: 
                1             2             3             4             5 
      1  0.103323D+00
      2  0.000000D+00  0.659505D+00
      3  0.000000D+00  0.000000D+00  0.862264D+00
      4 -0.415378D-01  0.000000D+00  0.000000D+00  0.103323D+00
      5  0.000000D+00 -0.108802D+00  0.000000D+00  0.000000D+00  0.659505D+00
      6  0.000000D+00  0.000000D+00 -0.574251D+00  0.000000D+00  0.000000D+00
      7 -0.350528D-01  0.000000D+00  0.000000D+00  0.416015D-02  0.000000D+00
      8  0.000000D+00 -0.278077D+00 -0.131903D+00  0.000000D+00  0.272524D-02
      9  0.000000D+00 -0.126616D+00 -0.132655D+00  0.000000D+00 -0.297813D-01
     10 -0.350528D-01  0.000000D+00  0.000000D+00  0.416014D-02  0.000000D+00
     11  0.000000D+00 -0.278077D+00  0.131903D+00  0.000000D+00  0.272524D-02
     12  0.000000D+00  0.126616D+00 -0.132655D+00  0.000000D+00  0.297813D-01
     13  0.416015D-02  0.000000D+00  0.000000D+00 -0.350528D-01  0.000000D+00
     14  0.000000D+00  0.272524D-02 -0.471063D-02  0.000000D+00 -0.278077D+00
     15  0.000000D+00  0.297813D-01 -0.113513D-01  0.000000D+00  0.126616D+00
     16  0.416015D-02  0.000000D+00  0.000000D+00 -0.350528D-01  0.000000D+00
     17  0.000000D+00  0.272524D-02  0.471063D-02  0.000000D+00 -0.278077D+00
     18  0.000000D+00 -0.297813D-01 -0.113513D-01  0.000000D+00 -0.126616D+00
                6             7             8             9            10 
      6  0.862264D+00
      7  0.000000D+00  0.238468D-01
      8  0.471063D-02  0.000000D+00  0.286540D+00
      9 -0.113513D-01  0.000000D+00  0.141174D+00  0.138784D+00
     10  0.000000D+00  0.221208D-02  0.000000D+00  0.000000D+00  0.238468D-01
     11 -0.471063D-02  0.000000D+00 -0.144676D-01  0.146568D-01  0.000000D+00
     12 -0.113513D-01  0.000000D+00 -0.146568D-01  0.911792D-02  0.000000D+00
     13  0.000000D+00 -0.840809D-02  0.000000D+00  0.000000D+00  0.132419D-01
     14  0.131903D+00  0.000000D+00  0.138994D-02 -0.542386D-04  0.000000D+00
     15 -0.132655D+00  0.000000D+00  0.542386D-04  0.157652D-02  0.000000D+00
     16  0.000000D+00  0.132419D-01  0.000000D+00  0.000000D+00 -0.840809D-02
     17 -0.131903D+00  0.000000D+00  0.188885D-02  0.620764D-03  0.000000D+00
     18 -0.132655D+00  0.000000D+00  0.620764D-03 -0.547189D-02  0.000000D+00
               11            12            13            14            15 
     11  0.286540D+00
     12 -0.141174D+00  0.138784D+00
     13  0.000000D+00  0.000000D+00  0.238468D-01
     14  0.188885D-02 -0.620764D-03  0.000000D+00  0.286540D+00
     15 -0.620764D-03 -0.547189D-02  0.000000D+00 -0.141174D+00  0.138784D+00
     16  0.000000D+00  0.000000D+00  0.221208D-02  0.000000D+00  0.000000D+00
     17  0.138994D-02  0.542386D-04  0.000000D+00 -0.144676D-01 -0.146568D-01
     18 -0.542386D-04  0.157652D-02  0.000000D+00  0.146568D-01  0.911792D-02
               16            17            18 
     16  0.238468D-01
     17  0.000000D+00  0.286540D+00
     18  0.000000D+00  0.141174D+00  0.138784D+00
 Force constants in internal coordinates: 
                1             2             3             4             5 
      1  0.627447D+00
      2  0.333946D-02  0.371995D+00
      3  0.333946D-02 -0.121912D-04  0.371995D+00
      4  0.333946D-02  0.537695D-03 -0.445648D-03  0.371995D+00
      5  0.333946D-02 -0.445648D-03  0.537695D-03 -0.121912D-04  0.371995D+00
      6  0.109105D-01  0.485094D-02 -0.118277D-01 -0.391310D-02  0.504690D-02
      7  0.109105D-01 -0.118277D-01  0.485094D-02  0.504690D-02 -0.391310D-02
      8 -0.218209D-01  0.697679D-02  0.697679D-02 -0.113381D-02 -0.113381D-02
      9  0.109105D-01 -0.391310D-02  0.504690D-02  0.485094D-02 -0.118277D-01
     10  0.109105D-01  0.504690D-02 -0.391310D-02 -0.118277D-01  0.485094D-02
     11 -0.218209D-01 -0.113381D-02 -0.113381D-02  0.697679D-02  0.697679D-02
     12  0.000000D+00  0.000000D+00  0.000000D+00  0.000000D+00  0.000000D+00
     13  0.000000D+00  0.000000D+00  0.000000D+00  0.000000D+00  0.000000D+00
     14  0.000000D+00  0.000000D+00  0.000000D+00  0.000000D+00  0.000000D+00
     15  0.000000D+00  0.000000D+00  0.000000D+00  0.000000D+00  0.000000D+00
                6             7             8             9            10 
      6  0.819487D-01
      7 -0.453594D-01  0.819487D-01
      8 -0.365893D-01 -0.365893D-01  0.731786D-01
      9 -0.938559D-02  0.109570D-01 -0.157143D-02  0.819487D-01
     10  0.109570D-01 -0.938559D-02 -0.157143D-02 -0.453594D-01  0.819487D-01
     11 -0.157143D-02 -0.157143D-02  0.314286D-02 -0.365893D-01 -0.365893D-01
     12  0.000000D+00  0.000000D+00  0.000000D+00  0.000000D+00  0.000000D+00
     13  0.000000D+00  0.000000D+00  0.000000D+00  0.000000D+00  0.000000D+00
     14  0.000000D+00  0.000000D+00  0.000000D+00  0.000000D+00  0.000000D+00
     15  0.000000D+00  0.000000D+00  0.000000D+00  0.000000D+00  0.000000D+00
               11            12            13            14            15 
     11  0.731786D-01
     12  0.000000D+00  0.250064D-01
     13  0.000000D+00  0.844334D-02  0.325470D-01
     14  0.000000D+00  0.844334D-02 -0.156603D-01  0.325470D-01
     15  0.000000D+00 -0.811967D-02  0.844334D-02  0.844334D-02  0.250064D-01
 Leave Link  716 at Sat Apr 21 15:48:16 2012, MaxMem=  524288000 cpu:       0.6
 (Enter /share/apps/gaussian/g09/l103.exe)

 GradGradGradGradGradGradGradGradGradGradGradGradGradGradGradGradGradGrad
 Berny optimization.
 Red2BG is reusing G-inverse.
 Internal  Forces:  Max     0.000027311 RMS     0.000016147
 Search for a local minimum.
 Step number   1 out of a maximum of    2
 All quantities printed in internal units (Hartrees-Bohrs-Radians)
 Second derivative matrix not updated -- analytic derivatives used.
 The second derivative matrix:
                          R1        R2        R3        R4        R5
           R1           0.62745
           R2           0.00334   0.37199
           R3           0.00334  -0.00001   0.37199
           R4           0.00334   0.00054  -0.00045   0.37199
           R5           0.00334  -0.00045   0.00054  -0.00001   0.37199
           A1           0.01091   0.00485  -0.01183  -0.00391   0.00505
           A2           0.01091  -0.01183   0.00485   0.00505  -0.00391
           A3          -0.02182   0.00698   0.00698  -0.00113  -0.00113
           A4           0.01091  -0.00391   0.00505   0.00485  -0.01183
           A5           0.01091   0.00505  -0.00391  -0.01183   0.00485
           A6          -0.02182  -0.00113  -0.00113   0.00698   0.00698
           D1           0.00000   0.00000   0.00000   0.00000   0.00000
           D2           0.00000   0.00000   0.00000   0.00000   0.00000
           D3           0.00000   0.00000   0.00000   0.00000   0.00000
           D4           0.00000   0.00000   0.00000   0.00000   0.00000
                          A1        A2        A3        A4        A5
           A1           0.08195
           A2          -0.04536   0.08195
           A3          -0.03659  -0.03659   0.07318
           A4          -0.00939   0.01096  -0.00157   0.08195
           A5           0.01096  -0.00939  -0.00157  -0.04536   0.08195
           A6          -0.00157  -0.00157   0.00314  -0.03659  -0.03659
           D1           0.00000   0.00000   0.00000   0.00000   0.00000
           D2           0.00000   0.00000   0.00000   0.00000   0.00000
           D3           0.00000   0.00000   0.00000   0.00000   0.00000
           D4           0.00000   0.00000   0.00000   0.00000   0.00000
                          A6        D1        D2        D3        D4
           A6           0.07318
           D1           0.00000   0.02501
           D2           0.00000   0.00844   0.03255
           D3           0.00000   0.00844  -0.01566   0.03255
           D4           0.00000  -0.00812   0.00844   0.00844   0.02501
 ITU=  0
     Eigenvalues ---    0.03313   0.03377   0.04821   0.10432   0.10674
     Eigenvalues ---    0.11128   0.14475   0.37237   0.37263   0.37321
     Eigenvalues ---    0.37393   0.63035
 Angle between quadratic step and forces=  30.30 degrees.
 Linear search not attempted -- first point.
 Iteration  1 RMS(Cart)=  0.00005755 RMS(Int)=  0.00000000
 Iteration  2 RMS(Cart)=  0.00000000 RMS(Int)=  0.00000000
 ClnCor:  largest displacement from symmetrization is 4.24D-14 for atom     6.
 Variable       Old X    -DE/DX   Delta X   Delta X   Delta X     New X
                                 (Linear)    (Quad)   (Total)
    R1        2.54264   0.00003   0.00000   0.00005   0.00005   2.54269
    R2        2.06881   0.00003   0.00000   0.00007   0.00007   2.06888
    R3        2.06881   0.00003   0.00000   0.00007   0.00007   2.06888
    R4        2.06881   0.00003   0.00000   0.00007   0.00007   2.06888
    R5        2.06881   0.00003   0.00000   0.00007   0.00007   2.06888
    A1        2.11837  -0.00001   0.00000  -0.00004  -0.00004   2.11832
    A2        2.11837  -0.00001   0.00000  -0.00004  -0.00004   2.11832
    A3        2.04645   0.00001   0.00000   0.00009   0.00009   2.04654
    A4        2.11837  -0.00001   0.00000  -0.00004  -0.00004   2.11832
    A5        2.11837  -0.00001   0.00000  -0.00004  -0.00004   2.11832
    A6        2.04645   0.00001   0.00000   0.00009   0.00009   2.04654
    D1        0.00000   0.00000   0.00000   0.00000   0.00000   0.00000
    D2        3.14159   0.00000   0.00000   0.00000   0.00000   3.14159
    D3        3.14159   0.00000   0.00000   0.00000   0.00000   3.14159
    D4        0.00000   0.00000   0.00000   0.00000   0.00000   0.00000
         Item               Value     Threshold  Converged?
 Maximum Force            0.000027     0.000450     YES
 RMS     Force            0.000016     0.000300     YES
 Maximum Displacement     0.000109     0.001800     YES
 RMS     Displacement     0.000058     0.001200     YES
 Predicted change in Energy=-5.811202D-09
 Optimization completed.
    -- Stationary point found.
                           ----------------------------
                           !   Optimized Parameters   !
                           ! (Angstroms and Degrees)  !
 --------------------------                            --------------------------
 ! Name  Definition              Value          Derivative Info.                !
 --------------------------------------------------------------------------------
 ! R1    R(1,2)                  1.3455         -DE/DX =    0.0                 !
 ! R2    R(1,3)                  1.0948         -DE/DX =    0.0                 !
 ! R3    R(1,4)                  1.0948         -DE/DX =    0.0                 !
 ! R4    R(2,5)                  1.0948         -DE/DX =    0.0                 !
 ! R5    R(2,6)                  1.0948         -DE/DX =    0.0                 !
 ! A1    A(2,1,3)              121.3735         -DE/DX =    0.0                 !
 ! A2    A(2,1,4)              121.3735         -DE/DX =    0.0                 !
 ! A3    A(3,1,4)              117.2529         -DE/DX =    0.0                 !
 ! A4    A(1,2,5)              121.3735         -DE/DX =    0.0                 !
 ! A5    A(1,2,6)              121.3735         -DE/DX =    0.0                 !
 ! A6    A(5,2,6)              117.2529         -DE/DX =    0.0                 !
 ! D1    D(3,1,2,5)              0.0            -DE/DX =    0.0                 !
 ! D2    D(3,1,2,6)            180.0            -DE/DX =    0.0                 !
 ! D3    D(4,1,2,5)            180.0            -DE/DX =    0.0                 !
 ! D4    D(4,1,2,6)              0.0            -DE/DX =    0.0                 !
 --------------------------------------------------------------------------------
 GradGradGradGradGradGradGradGradGradGradGradGradGradGradGradGradGradGrad

 Leave Link  103 at Sat Apr 21 15:48:16 2012, MaxMem=  524288000 cpu:       0.1
 (Enter /share/apps/gaussian/g09/l9999.exe)
 1\1\GINC-COMPUTE-0-5\Freq\RMP2-FC\CC-pVDZ\C2H4\KYAGI\21-Apr-2012\0\\#P
  Geom=AllCheck Guess=TCheck SCRF=Check GenChk RMP2(FC)/CC-pVDZ Freq\\c
 2h4 Frequency MP2/cc-pVDZ\\0,1\C,0.,0.,0.6727538872\C,0.,0.,-0.6727538
 872\H,0.,0.9347040366,1.2427072883\H,0.,-0.9347040366,1.2427072883\H,0
 .,0.9347040366,-1.2427072883\H,0.,-0.9347040366,-1.2427072883\\Version
 =AM64L-G09RevB.01\State=1-AG\HF=-78.0390565\MP2=-78.3153018\RMSD=2.372
 e-10\RMSF=1.366e-05\ZeroPoint=0.0513889\Thermal=0.0544401\Dipole=0.,0.
 ,0.\DipoleDeriv=-0.266294,0.,0.,0.,0.0966744,0.,0.,0.,-0.0129336,-0.26
 6294,0.,0.,0.,0.0966744,0.,0.,0.,-0.0129336,0.133147,0.,0.,0.,-0.04833
 72,-0.0641064,0.,-0.0421955,0.0064668,0.133147,0.,0.,0.,-0.0483372,0.0
 641064,0.,0.0421955,0.0064668,0.133147,0.,0.,0.,-0.0483372,0.0641064,0
 .,0.0421955,0.0064668,0.133147,0.,0.,0.,-0.0483372,-0.0641064,0.,-0.04
 21955,0.0064668\Polar=10.4510319,0.,21.2949304,0.,0.,30.9380786\PG=D02
 H [C2"(C1.C1),SG(H4)]\NImag=0\\0.10332314,0.,0.65950535,0.,0.,0.862264
 12,-0.04153777,0.,0.,0.10332314,0.,-0.10880218,0.,0.,0.65950535,0.,0.,
 -0.57425095,0.,0.,0.86226412,-0.03505283,0.,0.,0.00416015,0.,0.,0.0238
 4676,0.,-0.27807682,-0.13190252,0.,0.00272524,0.00471063,0.,0.28654036
 ,0.,-0.12661566,-0.13265525,0.,-0.02978132,-0.01135133,0.,0.14117367,0
 .13878402,-0.03505283,0.,0.,0.00416014,0.,0.,0.00221208,0.,0.,0.023846
 76,0.,-0.27807682,0.13190252,0.,0.00272524,-0.00471063,0.,-0.01446757,
 0.01465679,0.,0.28654036,0.,0.12661566,-0.13265525,0.,0.02978132,-0.01
 135133,0.,-0.01465679,0.00911792,0.,-0.14117367,0.13878402,0.00416015,
 0.,0.,-0.03505283,0.,0.,-0.00840809,0.,0.,0.01324194,0.,0.,0.02384676,
 0.,0.00272524,-0.00471063,0.,-0.27807682,0.13190252,0.,0.00138994,-0.0
 0005424,0.,0.00188885,-0.00062076,0.,0.28654036,0.,0.02978132,-0.01135
 133,0.,0.12661566,-0.13265525,0.,0.00005424,0.00157652,0.,-0.00062076,
 -0.00547189,0.,-0.14117367,0.13878402,0.00416015,0.,0.,-0.03505283,0.,
 0.,0.01324194,0.,0.,-0.00840809,0.,0.,0.00221208,0.,0.,0.02384676,0.,0
 .00272524,0.00471063,0.,-0.27807682,-0.13190252,0.,0.00188885,0.000620
 76,0.,0.00138994,0.00005424,0.,-0.01446757,-0.01465679,0.,0.28654036,0
 .,-0.02978132,-0.01135133,0.,-0.12661566,-0.13265525,0.,0.00062076,-0.
 00547189,0.,-0.00005424,0.00157652,0.,0.01465679,0.00911792,0.,0.14117
 367,0.13878402\\0.,0.,-0.00000900,0.,0.,0.00000900,0.,-0.00002710,-0.0
 0000802,0.,0.00002710,-0.00000802,0.,-0.00002710,0.00000802,0.,0.00002
 710,0.00000802\\\@


 A warm smile is the universal language of kindness.
                             -- William Arthur Ward
 Job cpu time:  0 days  0 hours  1 minutes  3.9 seconds.
 File lengths (MBytes):  RWF=     49 Int=      0 D2E=      0 Chk=      1 Scr=      1
 Normal termination of Gaussian 09 at Sat Apr 21 15:48:16 2012.

real	0m28.331s
user	2m59.219s
sys	0m7.774s
