c2h4 Frequency MP2/cc-pVDZ                                              
Freq      RMP2-FC                                                     CC-pVDZ             
Number of atoms                            I                6
Info1-9                                    I   N=           9
          15          15        1002           0           0         100
           6           2           1
Charge                                     I                0
Multiplicity                               I                1
Number of electrons                        I               16
Number of alpha electrons                  I                8
Number of beta electrons                   I                8
Number of basis functions                  I               48
Number of independent functions            I               48
Number of point charges in /Mol/           I                0
Number of translation vectors              I                0
Atomic numbers                             I   N=           6
           6           6           1           1           1           1
Nuclear charges                            R   N=           6
  6.00000000E+00  6.00000000E+00  1.00000000E+00  1.00000000E+00  1.00000000E+00
  1.00000000E+00
Current cartesian coordinates              R   N=          18
 -1.92521294E-15  1.41597882E-16  1.27132060E+00  2.76644620E-15 -3.05755799E-17
 -1.27132060E+00 -3.47894396E-15  1.76633464E+00  2.34837644E+00 -4.43064209E-15
 -1.76633464E+00  2.34837644E+00  5.18746304E-15  1.76633464E+00 -2.34837644E+00
  3.94817174E-15 -1.76633464E+00 -2.34837644E+00
Force Field                                I                0
Int Atom Types                             I   N=           6
           0           0           0           0           0           0
MM charges                                 R   N=           6
  0.00000000E+00  0.00000000E+00  0.00000000E+00  0.00000000E+00  0.00000000E+00
  0.00000000E+00
Integer atomic weights                     I   N=           6
          12          12           1           1           1           1
Real atomic weights                        R   N=           6
  1.20000000E+01  1.20000000E+01  1.00782504E+00  1.00782504E+00  1.00782504E+00
  1.00782504E+00
Atom fragment info                         I   N=           6
           0           0           0           0           0           0
Atom residue num                           I   N=           6
           0           0           0           0           0           0
Nuclear spins                              I   N=           6
           0           0           1           1           1           1
Nuclear ZEff                               R   N=           6
 -3.60000000E+00 -3.60000000E+00 -1.00000000E+00 -1.00000000E+00 -1.00000000E+00
 -1.00000000E+00
Nuclear QMom                               R   N=           6
  0.00000000E+00  0.00000000E+00  0.00000000E+00  0.00000000E+00  0.00000000E+00
  0.00000000E+00
Nuclear GFac                               R   N=           6
  0.00000000E+00  0.00000000E+00  2.79284600E+00  2.79284600E+00  2.79284600E+00
  2.79284600E+00
MicOpt                                     I   N=           6
          -1          -1          -1          -1          -1          -1
Number of contracted shells                I               24
Number of primitive shells                 I               60
Pure/Cartesian d shells                    I                0
Pure/Cartesian f shells                    I                0
Highest angular momentum                   I                2
Largest degree of contraction              I                7
Shell types                                I   N=          24
           0           0           0           1           1          -2
           0           0           0           1           1          -2
           0           0           1           0           0           1
           0           0           1           0           0           1
Number of primitives per shell             I   N=          24
           7           7           1           3           1           1
           7           7           1           3           1           1
           3           1           1           3           1           1
           3           1           1           3           1           1
Shell to atom map                          I   N=          24
           1           1           1           1           1           1
           2           2           2           2           2           2
           3           3           3           4           4           4
           5           5           5           6           6           6
Primitive exponents                        R   N=          60
  6.66500000E+03  1.00000000E+03  2.28000000E+02  6.47100000E+01  2.10600000E+01
  7.49500000E+00  2.79700000E+00  6.66500000E+03  2.28000000E+02  6.47100000E+01
  2.10600000E+01  7.49500000E+00  2.79700000E+00  5.21500000E-01  1.59600000E-01
  9.43900000E+00  2.00200000E+00  5.45600000E-01  1.51700000E-01  5.50000000E-01
  6.66500000E+03  1.00000000E+03  2.28000000E+02  6.47100000E+01  2.10600000E+01
  7.49500000E+00  2.79700000E+00  6.66500000E+03  2.28000000E+02  6.47100000E+01
  2.10600000E+01  7.49500000E+00  2.79700000E+00  5.21500000E-01  1.59600000E-01
  9.43900000E+00  2.00200000E+00  5.45600000E-01  1.51700000E-01  5.50000000E-01
  1.30100000E+01  1.96200000E+00  4.44600000E-01  1.22000000E-01  7.27000000E-01
  1.30100000E+01  1.96200000E+00  4.44600000E-01  1.22000000E-01  7.27000000E-01
  1.30100000E+01  1.96200000E+00  4.44600000E-01  1.22000000E-01  7.27000000E-01
  1.30100000E+01  1.96200000E+00  4.44600000E-01  1.22000000E-01  7.27000000E-01
Contraction coefficients                   R   N=          60
  6.93516317E-04  5.34150243E-03  2.71366714E-02  1.01992385E-01  2.75508636E-01
  4.51086433E-01  2.87565745E-01  7.73354740E-06  2.78072137E-04 -2.57875654E-03
 -8.95087684E-03 -1.06058855E-01 -1.31517686E-01  1.09948660E+00  1.00000000E+00
  5.69792516E-02  3.13207212E-01  7.60376742E-01  1.00000000E+00  1.00000000E+00
  6.93516317E-04  5.34150243E-03  2.71366714E-02  1.01992385E-01  2.75508636E-01
  4.51086433E-01  2.87565745E-01  7.73354740E-06  2.78072137E-04 -2.57875654E-03
 -8.95087684E-03 -1.06058855E-01 -1.31517686E-01  1.09948660E+00  1.00000000E+00
  5.69792516E-02  3.13207212E-01  7.60376742E-01  1.00000000E+00  1.00000000E+00
  3.34987264E-02  2.34800801E-01  8.13682958E-01  1.00000000E+00  1.00000000E+00
  3.34987264E-02  2.34800801E-01  8.13682958E-01  1.00000000E+00  1.00000000E+00
  3.34987264E-02  2.34800801E-01  8.13682958E-01  1.00000000E+00  1.00000000E+00
  3.34987264E-02  2.34800801E-01  8.13682958E-01  1.00000000E+00  1.00000000E+00
Coordinates of each shell                  R   N=          72
  0.00000000E+00 -4.93038066E-32  1.27132060E+00  0.00000000E+00 -4.93038066E-32
  1.27132060E+00  0.00000000E+00 -4.93038066E-32  1.27132060E+00  0.00000000E+00
 -4.93038066E-32  1.27132060E+00  0.00000000E+00 -4.93038066E-32  1.27132060E+00
  0.00000000E+00 -4.93038066E-32  1.27132060E+00  1.55691871E-16  1.23259516E-32
 -1.27132060E+00  1.55691871E-16  1.23259516E-32 -1.27132060E+00  1.55691871E-16
  1.23259516E-32 -1.27132060E+00  1.55691871E-16  1.23259516E-32 -1.27132060E+00
  1.55691871E-16  1.23259516E-32 -1.27132060E+00  1.55691871E-16  1.23259516E-32
 -1.27132060E+00  0.00000000E+00  1.76633464E+00  2.34837644E+00  0.00000000E+00
  1.76633464E+00  2.34837644E+00  0.00000000E+00  1.76633464E+00  2.34837644E+00
 -2.16313607E-16 -1.76633464E+00  2.34837644E+00 -2.16313607E-16 -1.76633464E+00
  2.34837644E+00 -2.16313607E-16 -1.76633464E+00  2.34837644E+00  2.87593169E-16
  1.76633464E+00 -2.34837644E+00  2.87593169E-16  1.76633464E+00 -2.34837644E+00
  2.87593169E-16  1.76633464E+00 -2.34837644E+00 -2.16313607E-16 -1.76633464E+00
 -2.34837644E+00 -2.16313607E-16 -1.76633464E+00 -2.34837644E+00 -2.16313607E-16
 -1.76633464E+00 -2.34837644E+00
Constraint Structure                       R   N=          18
  0.00000000E+00 -4.93038066E-32  1.27132060E+00  1.55691871E-16  1.23259516E-32
 -1.27132060E+00  0.00000000E+00  1.76633464E+00  2.34837644E+00 -2.16313607E-16
 -1.76633464E+00  2.34837644E+00  2.87593169E-16  1.76633464E+00 -2.34837644E+00
 -2.16313607E-16 -1.76633464E+00 -2.34837644E+00
Num ILSW                                   I              100
ILSW                                       I   N=         100
           0           0           0           0           2           0
           0           0           0           0           0          -1
           0           0           0           0           0           0
           0           0           0           0           1           0
           1           0           0           0           0           0
           0           0      100000           0          -1           0
           0           0           0           0           0           0
           0           0           0           1           1           0
           0           0           1           0           0           0
           0           0           4          40           0           0
           0           0           0           0           0           0
           0           0           0           0           0           0
           0           0           0           0           0           0
           0           0           0           0           0           0
           0           0           0           0           0           0
           0           0           0           0           0           0
           0           0           0           0
Num RLSW                                   I               40
RLSW                                       R   N=          40
  1.00000000E+00  1.00000000E+00  1.00000000E+00  1.00000000E+00  1.00000000E+00
  0.00000000E+00  0.00000000E+00  1.00000000E+00  0.00000000E+00  0.00000000E+00
  0.00000000E+00  0.00000000E+00  1.00000000E+00  0.00000000E+00  0.00000000E+00
  0.00000000E+00  0.00000000E+00  1.00000000E+00  0.00000000E+00  0.00000000E+00
  0.00000000E+00  0.00000000E+00  1.00000000E+00  0.00000000E+00  0.00000000E+00
  0.00000000E+00  0.00000000E+00  1.00000000E+00  0.00000000E+00  0.00000000E+00
  0.00000000E+00  0.00000000E+00  1.00000000E+00  0.00000000E+00  0.00000000E+00
  0.00000000E+00  0.00000000E+00  0.00000000E+00  1.00000000E+00  1.00000000E+00
MxBond                                     I                3
NBond                                      I   N=           6
           3           3           1           1           1           1
IBond                                      I   N=          18
           2           3           4           1           5           6
           1           0           0           1           0           0
           2           0           0           2           0           0
RBond                                      R   N=          18
  3.00000000E+00  1.00000000E+00  1.00000000E+00  3.00000000E+00  1.00000000E+00
  1.00000000E+00  1.00000000E+00  0.00000000E+00  0.00000000E+00  1.00000000E+00
  0.00000000E+00  0.00000000E+00  1.00000000E+00  0.00000000E+00  0.00000000E+00
  1.00000000E+00  0.00000000E+00  0.00000000E+00
Virial Ratio                               R      2.003268645113751E+00
SCF Energy                                 R     -7.803905653791290E+01
MP2 Energy                                 R     -7.831530180549228E+01
Total Energy                               R     -7.831530180549228E+01
Post-SCF wavefunction norm                 R      1.485287739139868E+00
RMS Force                                  R      1.365545526297361E-05
RMS Density                                R      2.372265980269771E-10
External E-field                           R   N=          35
  0.00000000E+00  0.00000000E+00  0.00000000E+00  0.00000000E+00  0.00000000E+00
  0.00000000E+00  0.00000000E+00  0.00000000E+00  0.00000000E+00  0.00000000E+00
  0.00000000E+00  0.00000000E+00  0.00000000E+00  0.00000000E+00  0.00000000E+00
  0.00000000E+00  0.00000000E+00  0.00000000E+00  0.00000000E+00  0.00000000E+00
  0.00000000E+00  0.00000000E+00  0.00000000E+00  0.00000000E+00  0.00000000E+00
  0.00000000E+00  0.00000000E+00  0.00000000E+00  0.00000000E+00  0.00000000E+00
  0.00000000E+00  0.00000000E+00  0.00000000E+00  0.00000000E+00  0.00000000E+00
IOpCl                                      I                0
IROHF                                      I                0
Alpha Orbital Energies                     R   N=          48
 -1.12407376E+01 -1.12391854E+01 -1.02634493E+00 -7.86374970E-01 -6.34601712E-01
 -5.79036788E-01 -5.02003938E-01 -3.71553638E-01  1.65193003E-01  2.02158697E-01
  2.31447828E-01  2.36231847E-01  3.02138933E-01  4.59564392E-01  5.81494836E-01
  6.08988184E-01  6.91099182E-01  7.04072709E-01  7.71194353E-01  8.06089000E-01
  8.60047774E-01  9.25768736E-01  9.63856572E-01  1.00497543E+00  1.13057129E+00
  1.23306096E+00  1.24161510E+00  1.25860229E+00  1.28856814E+00  1.59535437E+00
  1.72157259E+00  1.73862788E+00  1.80817148E+00  1.84840922E+00  1.84887631E+00
  1.89907104E+00  1.96696745E+00  1.96698841E+00  2.21475375E+00  2.23930713E+00
  2.35236666E+00  2.42055962E+00  2.48369720E+00  2.60648186E+00  2.68058936E+00
  2.78776043E+00  3.09650462E+00  3.34969408E+00
Alpha MO coefficients                      R   N=        2304
  7.05010585E-01  1.22524393E-02 -4.00361390E-03  0.00000000E+00  0.00000000E+00
  2.49053559E-04  0.00000000E+00  0.00000000E+00 -4.18674970E-04  2.17011155E-04
  0.00000000E+00  0.00000000E+00 -2.07035605E-04  0.00000000E+00  7.05010585E-01
  1.22524393E-02 -4.00361390E-03  0.00000000E+00  0.00000000E+00 -2.49053559E-04
  0.00000000E+00  0.00000000E+00  4.18674970E-04  2.17011155E-04  0.00000000E+00
  0.00000000E+00 -2.07035605E-04  0.00000000E+00 -1.80425727E-04  1.01458678E-03
  0.00000000E+00  2.74637567E-04  7.19878820E-05 -1.80425727E-04  1.01458678E-03
  0.00000000E+00 -2.74637567E-04  7.19878820E-05 -1.80425727E-04  1.01458678E-03
  0.00000000E+00  2.74637567E-04 -7.19878820E-05 -1.80425727E-04  1.01458678E-03
  0.00000000E+00 -2.74637567E-04 -7.19878820E-05  7.05351368E-01  1.28456913E-02
 -6.41258456E-03  0.00000000E+00  0.00000000E+00  1.31503998E-04  0.00000000E+00
  0.00000000E+00  1.06181921E-03  3.78262214E-04  0.00000000E+00  0.00000000E+00
 -6.94395871E-04  0.00000000E+00 -7.05351368E-01 -1.28456913E-02  6.41258456E-03
  0.00000000E+00  0.00000000E+00  1.31503998E-04  0.00000000E+00  0.00000000E+00
  1.06181921E-03 -3.78262214E-04  0.00000000E+00  0.00000000E+00  6.94395871E-04
  0.00000000E+00 -3.58104954E-04  6.84128080E-04  0.00000000E+00  4.48396613E-04
  2.69291762E-04 -3.58104954E-04  6.84128080E-04  0.00000000E+00 -4.48396613E-04
  2.69291762E-04  3.58104954E-04 -6.84128080E-04  0.00000000E+00 -4.48396613E-04
  2.69291762E-04  3.58104954E-04 -6.84128080E-04  0.00000000E+00  4.48396613E-04
  2.69291762E-04 -1.51991570E-01  2.96876798E-01  1.96407331E-01  0.00000000E+00
  0.00000000E+00 -1.15969858E-01  0.00000000E+00  0.00000000E+00 -2.51171554E-02
  1.91009221E-02  0.00000000E+00  0.00000000E+00  1.93594556E-03  0.00000000E+00
 -1.51991570E-01  2.96876798E-01  1.96407331E-01  0.00000000E+00  0.00000000E+00
  1.15969858E-01  0.00000000E+00  0.00000000E+00  2.51171554E-02  1.91009221E-02
  0.00000000E+00  0.00000000E+00  1.93594556E-03  0.00000000E+00  1.10898116E-01
  7.56041019E-03  0.00000000E+00 -1.45215783E-02 -1.07351787E-02  1.10898116E-01
  7.56041019E-03  0.00000000E+00  1.45215783E-02 -1.07351787E-02  1.10898116E-01
  7.56041019E-03  0.00000000E+00 -1.45215783E-02  1.07351787E-02  1.10898116E-01
  7.56041019E-03  0.00000000E+00  1.45215783E-02  1.07351787E-02 -1.15550462E-01
  2.36793263E-01  1.63913279E-01  0.00000000E+00  0.00000000E+00  1.59811041E-01
  0.00000000E+00  0.00000000E+00  7.40713886E-02 -9.78029386E-03  0.00000000E+00
  0.00000000E+00 -6.41095973E-03  0.00000000E+00  1.15550462E-01 -2.36793263E-01
 -1.63913279E-01  0.00000000E+00  0.00000000E+00  1.59811041E-01  0.00000000E+00
  0.00000000E+00  7.40713886E-02  9.78029386E-03  0.00000000E+00  0.00000000E+00
  6.41095973E-03  0.00000000E+00  1.95584748E-01  3.56264567E-02  0.00000000E+00
 -2.05298590E-02 -8.90945268E-03  1.95584748E-01  3.56264567E-02  0.00000000E+00
  2.05298590E-02 -8.90945268E-03 -1.95584748E-01 -3.56264567E-02  0.00000000E+00
  2.05298590E-02 -8.90945268E-03 -1.95584748E-01 -3.56264567E-02  0.00000000E+00
 -2.05298590E-02 -8.90945268E-03  0.00000000E+00  0.00000000E+00  0.00000000E+00
  0.00000000E+00  3.10403870E-01  0.00000000E+00  0.00000000E+00  1.17439187E-01
  0.00000000E+00  0.00000000E+00  0.00000000E+00  5.80389224E-04  0.00000000E+00
  0.00000000E+00  0.00000000E+00  0.00000000E+00  0.00000000E+00  0.00000000E+00
  3.10403870E-01  0.00000000E+00  0.00000000E+00  1.17439187E-01  0.00000000E+00
  0.00000000E+00  0.00000000E+00 -5.80389224E-04  0.00000000E+00  0.00000000E+00
  2.10043696E-01  6.24672138E-02  0.00000000E+00 -1.12404704E-02 -1.06187258E-02
 -2.10043696E-01 -6.24672138E-02  0.00000000E+00 -1.12404704E-02  1.06187258E-02
  2.10043696E-01  6.24672138E-02  0.00000000E+00 -1.12404704E-02  1.06187258E-02
 -2.10043696E-01 -6.24672138E-02  0.00000000E+00 -1.12404704E-02 -1.06187258E-02
  9.25419041E-03 -2.76915983E-02  1.10471613E-02  0.00000000E+00  0.00000000E+00
  4.03576918E-01  0.00000000E+00  0.00000000E+00  1.48336181E-01 -1.83205380E-02
  0.00000000E+00  0.00000000E+00 -1.24380934E-02  0.00000000E+00  9.25419041E-03
 -2.76915983E-02  1.10471613E-02  0.00000000E+00  0.00000000E+00 -4.03576918E-01
  0.00000000E+00  0.00000000E+00 -1.48336181E-01 -1.83205380E-02  0.00000000E+00
  0.00000000E+00 -1.24380934E-02  0.00000000E+00  1.66486466E-01  6.48809458E-02
  0.00000000E+00 -1.33042013E-02  2.54683827E-03  1.66486466E-01  6.48809458E-02
  0.00000000E+00  1.33042013E-02  2.54683827E-03  1.66486466E-01  6.48809458E-02
  0.00000000E+00 -1.33042013E-02 -2.54683827E-03  1.66486466E-01  6.48809458E-02
  0.00000000E+00  1.33042013E-02 -2.54683827E-03  0.00000000E+00  0.00000000E+00
  0.00000000E+00  0.00000000E+00  2.95274785E-01  0.00000000E+00  0.00000000E+00
  1.22032931E-01  0.00000000E+00  0.00000000E+00  0.00000000E+00  4.00964216E-02
  0.00000000E+00  0.00000000E+00  0.00000000E+00  0.00000000E+00  0.00000000E+00
  0.00000000E+00 -2.95274785E-01  0.00000000E+00  0.00000000E+00 -1.22032931E-01
  0.00000000E+00  0.00000000E+00  0.00000000E+00  4.00964216E-02  0.00000000E+00
  0.00000000E+00  2.52723031E-01  1.28527446E-01  0.00000000E+00 -7.17894048E-03
 -1.15507903E-02 -2.52723031E-01 -1.28527446E-01  0.00000000E+00 -7.17894048E-03
  1.15507903E-02 -2.52723031E-01 -1.28527446E-01  0.00000000E+00  7.17894048E-03
 -1.15507903E-02  2.52723031E-01  1.28527446E-01  0.00000000E+00  7.17894048E-03
  1.15507903E-02  0.00000000E+00  0.00000000E+00  0.00000000E+00  3.81218962E-01
  0.00000000E+00  0.00000000E+00  2.95428596E-01  0.00000000E+00  0.00000000E+00
  0.00000000E+00 -3.20537423E-02  0.00000000E+00  0.00000000E+00  0.00000000E+00
  0.00000000E+00  0.00000000E+00  0.00000000E+00  3.81218962E-01  0.00000000E+00
  0.00000000E+00  2.95428596E-01  0.00000000E+00  0.00000000E+00  0.00000000E+00
  3.20537423E-02  0.00000000E+00  0.00000000E+00  0.00000000E+00  0.00000000E+00
  0.00000000E+00  1.30632826E-02  0.00000000E+00  0.00000000E+00  0.00000000E+00
  0.00000000E+00  1.30632826E-02  0.00000000E+00  0.00000000E+00  0.00000000E+00
  0.00000000E+00  1.30632826E-02  0.00000000E+00  0.00000000E+00  0.00000000E+00
  0.00000000E+00  1.30632826E-02  0.00000000E+00  0.00000000E+00  0.00000000E+00
  0.00000000E+00  0.00000000E+00  3.44604915E-01  0.00000000E+00  0.00000000E+00
  7.44677018E-01  0.00000000E+00  0.00000000E+00  0.00000000E+00  2.51621002E-02
  0.00000000E+00  0.00000000E+00  0.00000000E+00  0.00000000E+00  0.00000000E+00
  0.00000000E+00 -3.44604915E-01  0.00000000E+00  0.00000000E+00 -7.44677018E-01
  0.00000000E+00  0.00000000E+00  0.00000000E+00  2.51621002E-02  0.00000000E+00
  0.00000000E+00  0.00000000E+00  0.00000000E+00  0.00000000E+00  1.79711890E-02
  0.00000000E+00  0.00000000E+00  0.00000000E+00  0.00000000E+00  1.79711890E-02
  0.00000000E+00  0.00000000E+00  0.00000000E+00  0.00000000E+00 -1.79711890E-02
  0.00000000E+00  0.00000000E+00  0.00000000E+00  0.00000000E+00 -1.79711890E-02
  0.00000000E+00  0.00000000E+00 -7.11296926E-02  5.31911049E-02  1.37966351E+00
  0.00000000E+00  0.00000000E+00  1.37200968E-01  0.00000000E+00  0.00000000E+00
  5.24874487E-01  4.93478341E-03  0.00000000E+00  0.00000000E+00 -1.47147079E-02
  0.00000000E+00 -7.11296926E-02  5.31911049E-02  1.37966351E+00  0.00000000E+00
  0.00000000E+00 -1.37200968E-01  0.00000000E+00  0.00000000E+00 -5.24874487E-01
  4.93478341E-03  0.00000000E+00  0.00000000E+00 -1.47147079E-02  0.00000000E+00
 -1.23990321E-02 -9.25385489E-01  0.00000000E+00  9.54672736E-03  9.91382616E-03
 -1.23990321E-02 -9.25385489E-01  0.00000000E+00 -9.54672736E-03  9.91382616E-03
 -1.23990321E-02 -9.25385489E-01  0.00000000E+00  9.54672736E-03 -9.91382616E-03
 -1.23990321E-02 -9.25385489E-01  0.00000000E+00 -9.54672736E-03 -9.91382616E-03
  0.00000000E+00  0.00000000E+00  0.00000000E+00  0.00000000E+00 -2.24480065E-01
  0.00000000E+00  0.00000000E+00 -7.76821552E-01  0.00000000E+00  0.00000000E+00
  0.00000000E+00  6.32337315E-04  0.00000000E+00  0.00000000E+00  0.00000000E+00
  0.00000000E+00  0.00000000E+00  0.00000000E+00 -2.24480065E-01  0.00000000E+00
  0.00000000E+00 -7.76821552E-01  0.00000000E+00  0.00000000E+00  0.00000000E+00
 -6.32337315E-04  0.00000000E+00  0.00000000E+00  2.86941472E-02  1.17015137E+00
  0.00000000E+00 -1.16664122E-02 -6.92133125E-03 -2.86941472E-02 -1.17015137E+00
  0.00000000E+00 -1.16664122E-02  6.92133125E-03  2.86941472E-02  1.17015137E+00
  0.00000000E+00 -1.16664122E-02  6.92133125E-03 -2.86941472E-02 -1.17015137E+00
  0.00000000E+00 -1.16664122E-02 -6.92133125E-03 -8.85228836E-02  8.30345251E-02
  1.55453132E+00  0.00000000E+00  0.00000000E+00  7.96460693E-02  0.00000000E+00
  0.00000000E+00  3.19493968E-01 -3.05336866E-04  0.00000000E+00  0.00000000E+00
 -2.48173663E-02  0.00000000E+00  8.85228836E-02 -8.30345251E-02 -1.55453132E+00
  0.00000000E+00  0.00000000E+00  7.96460693E-02  0.00000000E+00  0.00000000E+00
  3.19493968E-01  3.05336866E-04  0.00000000E+00  0.00000000E+00  2.48173663E-02
  0.00000000E+00 -2.00083866E-02 -1.06855703E+00  0.00000000E+00  1.75138750E-02
  5.14915232E-03 -2.00083866E-02 -1.06855703E+00  0.00000000E+00 -1.75138750E-02
  5.14915232E-03  2.00083866E-02  1.06855703E+00  0.00000000E+00 -1.75138750E-02
  5.14915232E-03  2.00083866E-02  1.06855703E+00  0.00000000E+00  1.75138750E-02
  5.14915232E-03  0.00000000E+00  0.00000000E+00  0.00000000E+00  0.00000000E+00
 -1.97878146E-01  0.00000000E+00  0.00000000E+00 -1.62538099E+00  0.00000000E+00
  0.00000000E+00  0.00000000E+00 -3.39727663E-02  0.00000000E+00  0.00000000E+00
  0.00000000E+00  0.00000000E+00  0.00000000E+00  0.00000000E+00  1.97878146E-01
  0.00000000E+00  0.00000000E+00  1.62538099E+00  0.00000000E+00  0.00000000E+00
  0.00000000E+00 -3.39727663E-02  0.00000000E+00  0.00000000E+00 -2.03341383E-02
  1.65240855E+00  0.00000000E+00 -1.60842483E-02 -1.70198080E-02  2.03341383E-02
 -1.65240855E+00  0.00000000E+00 -1.60842483E-02  1.70198080E-02  2.03341383E-02
 -1.65240855E+00  0.00000000E+00  1.60842483E-02 -1.70198080E-02 -2.03341383E-02
  1.65240855E+00  0.00000000E+00  1.60842483E-02  1.70198080E-02 -6.24957142E-02
 -1.50049619E-02  3.48633774E+00  0.00000000E+00  0.00000000E+00 -1.48713370E-01
  0.00000000E+00  0.00000000E+00 -3.27710063E+00  4.20122008E-02  0.00000000E+00
  0.00000000E+00 -3.54435729E-02  0.00000000E+00  6.24957142E-02  1.50049619E-02
 -3.48633774E+00  0.00000000E+00  0.00000000E+00 -1.48713370E-01  0.00000000E+00
  0.00000000E+00 -3.27710063E+00 -4.20122008E-02  0.00000000E+00  0.00000000E+00
  3.54435729E-02  0.00000000E+00  1.14696172E-01  6.87163793E-01  0.00000000E+00
  1.73559195E-02  2.98249813E-03  1.14696172E-01  6.87163793E-01  0.00000000E+00
 -1.73559195E-02  2.98249813E-03 -1.14696172E-01 -6.87163793E-01  0.00000000E+00
 -1.73559195E-02  2.98249813E-03 -1.14696172E-01 -6.87163793E-01  0.00000000E+00
  1.73559195E-02  2.98249813E-03  3.40914098E-03  1.58710861E-01  4.25149329E-01
  0.00000000E+00  0.00000000E+00 -4.18310126E-01  0.00000000E+00  0.00000000E+00
  1.01990523E+00  5.29242722E-02  0.00000000E+00  0.00000000E+00  3.53380925E-02
  0.00000000E+00  3.40914098E-03  1.58710861E-01  4.25149329E-01  0.00000000E+00
  0.00000000E+00  4.18310126E-01  0.00000000E+00  0.00000000E+00 -1.01990523E+00
  5.29242722E-02  0.00000000E+00  0.00000000E+00  3.53380925E-02  0.00000000E+00
 -2.49337722E-01 -4.09219154E-02  0.00000000E+00 -5.45361501E-03  3.41020372E-02
 -2.49337722E-01 -4.09219154E-02  0.00000000E+00  5.45361501E-03  3.41020372E-02
 -2.49337722E-01 -4.09219154E-02  0.00000000E+00 -5.45361501E-03 -3.41020372E-02
 -2.49337722E-01 -4.09219154E-02  0.00000000E+00  5.45361501E-03 -3.41020372E-02
  0.00000000E+00  0.00000000E+00  0.00000000E+00  0.00000000E+00  5.40381013E-02
  0.00000000E+00  0.00000000E+00 -3.90345177E-01  0.00000000E+00  0.00000000E+00
  0.00000000E+00  1.49142357E-01  0.00000000E+00  0.00000000E+00  0.00000000E+00
  0.00000000E+00  0.00000000E+00  0.00000000E+00  5.40381013E-02  0.00000000E+00
  0.00000000E+00 -3.90345177E-01  0.00000000E+00  0.00000000E+00  0.00000000E+00
 -1.49142357E-01  0.00000000E+00  0.00000000E+00  5.18348691E-01 -2.35653552E-01
  0.00000000E+00  1.36487288E-02  6.85625395E-02 -5.18348691E-01  2.35653552E-01
  0.00000000E+00  1.36487288E-02 -6.85625395E-02  5.18348691E-01 -2.35653552E-01
  0.00000000E+00  1.36487288E-02 -6.85625395E-02 -5.18348691E-01  2.35653552E-01
  0.00000000E+00  1.36487288E-02  6.85625395E-02  0.00000000E+00  0.00000000E+00
  0.00000000E+00  6.75721989E-01  0.00000000E+00  0.00000000E+00 -6.14803518E-01
  0.00000000E+00  0.00000000E+00  0.00000000E+00 -1.13842674E-01  0.00000000E+00
  0.00000000E+00  0.00000000E+00  0.00000000E+00  0.00000000E+00  0.00000000E+00
  6.75721989E-01  0.00000000E+00  0.00000000E+00 -6.14803518E-01  0.00000000E+00
  0.00000000E+00  0.00000000E+00  1.13842674E-01  0.00000000E+00  0.00000000E+00
  0.00000000E+00  0.00000000E+00  0.00000000E+00  1.91853398E-02  0.00000000E+00
  0.00000000E+00  0.00000000E+00  0.00000000E+00  1.91853398E-02  0.00000000E+00
  0.00000000E+00  0.00000000E+00  0.00000000E+00  1.91853398E-02  0.00000000E+00
  0.00000000E+00  0.00000000E+00  0.00000000E+00  1.91853398E-02  0.00000000E+00
  0.00000000E+00  4.28813599E-02  3.02166092E-01 -4.41838099E-01  0.00000000E+00
  0.00000000E+00 -2.82685885E-01  0.00000000E+00  0.00000000E+00  1.07150962E-01
  3.07160053E-02  0.00000000E+00  0.00000000E+00 -2.05630590E-01  0.00000000E+00
  4.28813599E-02  3.02166092E-01 -4.41838099E-01  0.00000000E+00  0.00000000E+00
  2.82685885E-01  0.00000000E+00  0.00000000E+00 -1.07150962E-01  3.07160053E-02
  0.00000000E+00  0.00000000E+00 -2.05630590E-01  0.00000000E+00  4.81976473E-01
 -1.70181481E-01  0.00000000E+00  8.64591546E-02  2.72161972E-02  4.81976473E-01
 -1.70181481E-01  0.00000000E+00 -8.64591546E-02  2.72161972E-02  4.81976473E-01
 -1.70181481E-01  0.00000000E+00  8.64591546E-02 -2.72161972E-02  4.81976473E-01
 -1.70181481E-01  0.00000000E+00 -8.64591546E-02 -2.72161972E-02  9.09617899E-02
 -2.28412656E-01 -5.11872299E-01  0.00000000E+00  0.00000000E+00  1.58153008E-01
  0.00000000E+00  0.00000000E+00  3.54570781E-01  9.67698394E-02  0.00000000E+00
  0.00000000E+00 -1.79890191E-01  0.00000000E+00 -9.09617899E-02  2.28412656E-01
  5.11872299E-01  0.00000000E+00  0.00000000E+00  1.58153008E-01  0.00000000E+00
  0.00000000E+00  3.54570781E-01 -9.67698394E-02  0.00000000E+00  0.00000000E+00
  1.79890191E-01  0.00000000E+00  5.36630476E-01 -4.68023265E-01  0.00000000E+00
  9.13153749E-02  5.92471727E-02  5.36630476E-01 -4.68023265E-01  0.00000000E+00
 -9.13153749E-02  5.92471727E-02 -5.36630476E-01  4.68023265E-01  0.00000000E+00
 -9.13153749E-02  5.92471727E-02 -5.36630476E-01  4.68023265E-01  0.00000000E+00
  9.13153749E-02  5.92471727E-02  0.00000000E+00  0.00000000E+00  0.00000000E+00
 -7.66475912E-01  0.00000000E+00  0.00000000E+00  1.12128937E+00  0.00000000E+00
  0.00000000E+00  0.00000000E+00 -8.60367488E-02  0.00000000E+00  0.00000000E+00
  0.00000000E+00  0.00000000E+00  0.00000000E+00  0.00000000E+00  7.66475912E-01
  0.00000000E+00  0.00000000E+00 -1.12128937E+00  0.00000000E+00  0.00000000E+00
  0.00000000E+00 -8.60367488E-02  0.00000000E+00  0.00000000E+00  0.00000000E+00
  0.00000000E+00  0.00000000E+00 -3.13468615E-02  0.00000000E+00  0.00000000E+00
  0.00000000E+00  0.00000000E+00 -3.13468615E-02  0.00000000E+00  0.00000000E+00
  0.00000000E+00  0.00000000E+00  3.13468615E-02  0.00000000E+00  0.00000000E+00
  0.00000000E+00  0.00000000E+00  3.13468615E-02  0.00000000E+00  0.00000000E+00
  0.00000000E+00  0.00000000E+00  0.00000000E+00  0.00000000E+00 -6.01057294E-01
  0.00000000E+00  0.00000000E+00  1.36361880E+00  0.00000000E+00  0.00000000E+00
  0.00000000E+00  2.32105216E-01  0.00000000E+00  0.00000000E+00  0.00000000E+00
  0.00000000E+00  0.00000000E+00  0.00000000E+00 -6.01057294E-01  0.00000000E+00
  0.00000000E+00  1.36361880E+00  0.00000000E+00  0.00000000E+00  0.00000000E+00
 -2.32105216E-01  0.00000000E+00  0.00000000E+00  1.79631691E-02 -1.07462987E+00
  0.00000000E+00  1.43375724E-01  6.67532329E-02 -1.79631691E-02  1.07462987E+00
  0.00000000E+00  1.43375724E-01 -6.67532329E-02  1.79631691E-02 -1.07462987E+00
  0.00000000E+00  1.43375724E-01 -6.67532329E-02 -1.79631691E-02  1.07462987E+00
  0.00000000E+00  1.43375724E-01  6.67532329E-02  0.00000000E+00  0.00000000E+00
  0.00000000E+00  0.00000000E+00 -6.87869695E-01  0.00000000E+00  0.00000000E+00
  1.99868038E+00  0.00000000E+00  0.00000000E+00  0.00000000E+00  1.27057608E-01