H2CO b3lyp/cc-pvdz (opt/freq)                                           
Freq      RB3LYP                                                      CC-pVDZ             
Number of atoms                            I                4
Info1-9                                    I   N=           9
          12          12        1002           0           0         100
           6          18        -502
Charge                                     I                0
Multiplicity                               I                1
Number of electrons                        I               16
Number of alpha electrons                  I                8
Number of beta electrons                   I                8
Number of basis functions                  I               38
Number of independent functions            I               38
Number of point charges in /Mol/           I                0
Number of translation vectors              I                0
Atomic numbers                             I   N=           4
           6           8           1           1
Nuclear charges                            R   N=           4
  6.00000000E+00  8.00000000E+00  1.00000000E+00  1.00000000E+00
Current cartesian coordinates              R   N=          12
  0.00000000E+00  0.00000000E+00 -9.95944707E-01  0.00000000E+00 -7.88860905E-31
  1.27966050E+00  0.00000000E+00  1.78761369E+00 -2.13080789E+00 -2.18919538E-16
 -1.78761369E+00 -2.13080789E+00
Force Field                                I                0
Int Atom Types                             I   N=           4
           0           0           0           0
MM charges                                 R   N=           4
  0.00000000E+00  0.00000000E+00  0.00000000E+00  0.00000000E+00
Integer atomic weights                     I   N=           4
          12          16           1           1
Real atomic weights                        R   N=           4
  1.20000000E+01  1.59949146E+01  1.00782504E+00  1.00782504E+00
Atom fragment info                         I   N=           4
           0           0           0           0
Atom residue num                           I   N=           4
           0           0           0           0
Nuclear spins                              I   N=           4
           0           0           1           1
Nuclear ZEff                               R   N=           4
 -3.60000000E+00 -5.60000000E+00 -1.00000000E+00 -1.00000000E+00
Nuclear ZNuc                               R   N=           4
  6.00000000E+00  8.00000000E+00  1.00000000E+00  1.00000000E+00
Nuclear QMom                               R   N=           4
  0.00000000E+00  0.00000000E+00  0.00000000E+00  0.00000000E+00
Nuclear GFac                               R   N=           4
  0.00000000E+00  0.00000000E+00  2.79284600E+00  2.79284600E+00
MicOpt                                     I   N=           4
          -1          -1          -1          -1
Number of contracted shells                I               18
Number of primitive shells                 I               50
Pure/Cartesian d shells                    I                0
Pure/Cartesian f shells                    I                0
Highest angular momentum                   I                2
Largest degree of contraction              I                7
Shell types                                I   N=          18
           0           0           0           1           1          -2
           0           0           0           1           1          -2
           0           0           1           0           0           1
Number of primitives per shell             I   N=          18
           7           7           1           3           1           1
           7           7           1           3           1           1
           3           1           1           3           1           1
Shell to atom map                          I   N=          18
           1           1           1           1           1           1
           2           2           2           2           2           2
           3           3           3           4           4           4
Primitive exponents                        R   N=          50
  6.66500000E+03  1.00000000E+03  2.28000000E+02  6.47100000E+01  2.10600000E+01
  7.49500000E+00  2.79700000E+00  6.66500000E+03  2.28000000E+02  6.47100000E+01
  2.10600000E+01  7.49500000E+00  2.79700000E+00  5.21500000E-01  1.59600000E-01
  9.43900000E+00  2.00200000E+00  5.45600000E-01  1.51700000E-01  5.50000000E-01
  1.17200000E+04  1.75900000E+03  4.00800000E+02  1.13700000E+02  3.70300000E+01
  1.32700000E+01  5.02500000E+00  1.17200000E+04  4.00800000E+02  1.13700000E+02
  3.70300000E+01  1.32700000E+01  5.02500000E+00  1.01300000E+00  3.02300000E-01
  1.77000000E+01  3.85400000E+00  1.04600000E+00  2.75300000E-01  1.18500000E+00
  1.30100000E+01  1.96200000E+00  4.44600000E-01  1.22000000E-01  7.27000000E-01
  1.30100000E+01  1.96200000E+00  4.44600000E-01  1.22000000E-01  7.27000000E-01
Contraction coefficients                   R   N=          50
  6.93516317E-04  5.34150243E-03  2.71366714E-02  1.01992385E-01  2.75508636E-01
  4.51086433E-01  2.87565745E-01  7.73354740E-06  2.78072137E-04 -2.57875654E-03
 -8.95087684E-03 -1.06058855E-01 -1.31517686E-01  1.09948660E+00  1.00000000E+00
  5.69792516E-02  3.13207212E-01  7.60376742E-01  1.00000000E+00  1.00000000E+00
  7.11864434E-04  5.48520199E-03  2.79099296E-02  1.05133208E-01  2.84002490E-01
  4.51673946E-01  2.73208126E-01  7.69030046E-06  3.13484579E-04 -2.96614853E-03
 -1.08753543E-02 -1.20753817E-01 -1.06275264E-01  1.09597548E+00  1.00000000E+00
  6.26791663E-02  3.33536566E-01  7.41239642E-01  1.00000000E+00  1.00000000E+00
  3.34987264E-02  2.34800801E-01  8.13682958E-01  1.00000000E+00  1.00000000E+00
  3.34987264E-02  2.34800801E-01  8.13682958E-01  1.00000000E+00  1.00000000E+00
Coordinates of each shell                  R   N=          54
  0.00000000E+00  0.00000000E+00 -9.95944707E-01  0.00000000E+00  0.00000000E+00
 -9.95944707E-01  0.00000000E+00  0.00000000E+00 -9.95944707E-01  0.00000000E+00
  0.00000000E+00 -9.95944707E-01  0.00000000E+00  0.00000000E+00 -9.95944707E-01
  0.00000000E+00  0.00000000E+00 -9.95944707E-01  0.00000000E+00 -3.94430453E-31
  1.27966050E+00  0.00000000E+00 -3.94430453E-31  1.27966050E+00  0.00000000E+00
 -3.94430453E-31  1.27966050E+00  0.00000000E+00 -3.94430453E-31  1.27966050E+00
  0.00000000E+00 -3.94430453E-31  1.27966050E+00  0.00000000E+00 -3.94430453E-31
  1.27966050E+00  0.00000000E+00  1.78761369E+00 -2.13080789E+00  0.00000000E+00
  1.78761369E+00 -2.13080789E+00  0.00000000E+00  1.78761369E+00 -2.13080789E+00
 -2.18919538E-16 -1.78761369E+00 -2.13080789E+00 -2.18919538E-16 -1.78761369E+00
 -2.13080789E+00 -2.18919538E-16 -1.78761369E+00 -2.13080789E+00
Constraint Structure                       R   N=          12
  0.00000000E+00  0.00000000E+00 -9.95944707E-01  0.00000000E+00 -3.94430453E-31
  1.27966050E+00  0.00000000E+00  1.78761369E+00 -2.13080789E+00 -2.18919538E-16
 -1.78761369E+00 -2.13080789E+00
Num ILSW                                   I              100
ILSW                                       I   N=         100
           0           0           0           0           2           0
           0           0           0           0         402          -1
           0           0           0           0           2           0
           0           0           0           0           1           0
           1           0           0           0           0           0
           0           0      100000           0          -1           0
           0           0           0           0           0           0
           0           0           0           1           0           0
           0           0           1           0           0           0
           0           0           4          41           0           0
           0           0           5           0           0           0
           0           0           0           4           0           0
           0           0           0           0           0           0
           0           0           0           0           0           0
           0           0           0           0           0           0
           0           0           0           0           0           0
           0           0           0           0
Num RLSW                                   I               41
RLSW                                       R   N=          41
  8.00000000E-01  7.20000000E-01  1.00000000E+00  8.10000000E-01  2.00000000E-01
  0.00000000E+00  0.00000000E+00  1.00000000E+00  0.00000000E+00  0.00000000E+00
  0.00000000E+00  0.00000000E+00  1.00000000E+00  0.00000000E+00  0.00000000E+00
  0.00000000E+00  0.00000000E+00  1.00000000E+00  0.00000000E+00  0.00000000E+00
  0.00000000E+00  0.00000000E+00  1.00000000E+00  0.00000000E+00  0.00000000E+00
  0.00000000E+00  0.00000000E+00  1.00000000E+00  0.00000000E+00  0.00000000E+00
  0.00000000E+00  0.00000000E+00  1.00000000E+00  0.00000000E+00  0.00000000E+00
  0.00000000E+00  0.00000000E+00  0.00000000E+00  1.00000000E+00  1.00000000E+00
  0.00000000E+00
MxBond                                     I                3
NBond                                      I   N=           4
           3           1           1           1
IBond                                      I   N=          12
           2           3           4           1           0           0
           1           0           0           1           0           0
RBond                                      R   N=          12
  2.00000000E+00  1.00000000E+00  1.00000000E+00  2.00000000E+00  0.00000000E+00
  0.00000000E+00  1.00000000E+00  0.00000000E+00  0.00000000E+00  1.00000000E+00
  0.00000000E+00  0.00000000E+00
Virial Ratio                               R      2.006374438085398E+00
SCF Energy                                 R     -1.145076401448772E+02
Total Energy                               R     -1.145076401448772E+02
RMS Force                                  R      1.829156251122327E-04
RMS Density                                R      5.452043740285500E-10
External E-field                           R   N=          35
  0.00000000E+00  0.00000000E+00  0.00000000E+00  0.00000000E+00  0.00000000E+00
  0.00000000E+00  0.00000000E+00  0.00000000E+00  0.00000000E+00  0.00000000E+00
  0.00000000E+00  0.00000000E+00  0.00000000E+00  0.00000000E+00  0.00000000E+00
  0.00000000E+00  0.00000000E+00  0.00000000E+00  0.00000000E+00  0.00000000E+00
  0.00000000E+00  0.00000000E+00  0.00000000E+00  0.00000000E+00  0.00000000E+00
  0.00000000E+00  0.00000000E+00  0.00000000E+00  0.00000000E+00  0.00000000E+00
  0.00000000E+00  0.00000000E+00  0.00000000E+00  0.00000000E+00  0.00000000E+00
IOpCl                                      I                0
IROHF                                      I                0
Alpha Orbital Energies                     R   N=          38
 -1.91601457E+01 -1.02898391E+01 -1.06341832E+00 -6.32792716E-01 -4.91925431E-01
 -4.50179401E-01 -4.00689385E-01 -2.67049525E-01 -4.41379206E-02  6.51582921E-02
  1.33281562E-01  2.08222056E-01  4.49808117E-01  4.62193191E-01  5.37017504E-01
  5.87443043E-01  6.31765099E-01  7.59169232E-01  8.71624427E-01  9.25858467E-01
  9.78947670E-01  1.05359254E+00  1.16495787E+00  1.40613118E+00  1.43245586E+00
  1.53536298E+00  1.65345300E+00  1.67066943E+00  1.68769920E+00  1.72444026E+00
  2.23439349E+00  2.30483517E+00  2.39104640E+00  2.67092250E+00  2.78924785E+00
  3.03351515E+00  3.32382569E+00  3.42043256E+00
Alpha MO coefficients                      R   N=        1444
  1.90009342E-04  4.00941335E-04  5.13889219E-03  0.00000000E+00  0.00000000E+00
 -1.87539925E-04  0.00000000E+00  0.00000000E+00  3.20921339E-03 -1.11806939E-03
  0.00000000E+00  0.00000000E+00 -6.35890735E-04  0.00000000E+00  9.96555433E-01
  2.30423108E-02 -1.25394713E-02  0.00000000E+00  0.00000000E+00 -1.97193784E-03
  0.00000000E+00  0.00000000E+00  3.16802463E-03  8.37130694E-05  0.00000000E+00
  0.00000000E+00  4.31138317E-05  0.00000000E+00 -6.42968413E-04  4.07351423E-05
  0.00000000E+00 -5.09832799E-05 -7.24972940E-04 -6.42968413E-04  4.07351423E-05
  0.00000000E+00  5.09832799E-05 -7.24972940E-04  9.96298110E-01  2.88669017E-02
 -7.43289630E-03  0.00000000E+00  0.00000000E+00  7.82468849E-04  0.00000000E+00
  0.00000000E+00  2.77984780E-03  1.56508204E-03  0.00000000E+00  0.00000000E+00
 -1.57496027E-03  0.00000000E+00 -9.75015933E-05  6.74370681E-04 -5.10418959E-03
  0.00000000E+00  0.00000000E+00  7.50622591E-04  0.00000000E+00  0.00000000E+00
  3.55536001E-03 -9.14524179E-04  0.00000000E+00  0.00000000E+00  1.57742648E-04
  0.00000000E+00 -2.15826106E-03  2.34430941E-03  0.00000000E+00  1.74503236E-03
 -1.19763450E-03 -2.15826106E-03  2.34430941E-03  0.00000000E+00 -1.74503236E-03
 -1.19763450E-03 -1.11132055E-01  2.19567778E-01  9.33219496E-02  0.00000000E+00
  0.00000000E+00  1.97563441E-01  0.00000000E+00  0.00000000E+00  1.87407462E-02
  3.69711517E-02  0.00000000E+00  0.00000000E+00  8.26728112E-03  0.00000000E+00
 -1.93318497E-01  4.07982318E-01  3.54826330E-01  0.00000000E+00  0.00000000E+00
 -1.63660359E-01  0.00000000E+00  0.00000000E+00 -3.21251857E-02  1.47683317E-02
  0.00000000E+00  0.00000000E+00  2.39367758E-03  0.00000000E+00  3.80133111E-02
 -1.53490037E-03  0.00000000E+00 -7.29205954E-03  9.46354554E-03  3.80133111E-02
 -1.53490037E-03  0.00000000E+00  7.29205954E-03  9.46354554E-03 -1.55780266E-01
  3.43013261E-01  2.34580598E-01  0.00000000E+00  0.00000000E+00 -2.05494088E-01
  0.00000000E+00  0.00000000E+00 -8.73561225E-02 -1.43786946E-02  0.00000000E+00
  0.00000000E+00 -8.85556310E-04  0.00000000E+00  8.50489179E-02 -1.92512517E-01
 -2.15805252E-01  0.00000000E+00  0.00000000E+00 -1.08082437E-01  0.00000000E+00
  0.00000000E+00 -7.93447024E-02  7.31677007E-03  0.00000000E+00  0.00000000E+00
 -1.58766655E-03  0.00000000E+00  2.35259843E-01  3.77996748E-02  0.00000000E+00
 -2.33376353E-02  8.93495789E-03  2.35259843E-01  3.77996748E-02  0.00000000E+00
  2.33376353E-02  8.93495789E-03  0.00000000E+00  0.00000000E+00  0.00000000E+00
  0.00000000E+00  4.35712570E-01  0.00000000E+00  0.00000000E+00  1.36935722E-01
  0.00000000E+00  0.00000000E+00  0.00000000E+00  1.02927881E-02  0.00000000E+00
  0.00000000E+00  0.00000000E+00  0.00000000E+00  0.00000000E+00  0.00000000E+00
  2.90821676E-01  0.00000000E+00  0.00000000E+00  1.62906204E-01  0.00000000E+00
  0.00000000E+00  0.00000000E+00 -1.91743022E-02  0.00000000E+00  0.00000000E+00
  2.54828481E-01  8.52651290E-02  0.00000000E+00 -9.52582183E-03  1.06842385E-02
 -2.54828481E-01 -8.52651290E-02  0.00000000E+00 -9.52582183E-03 -1.06842385E-02
  2.40777203E-02 -8.03825606E-02  2.52116142E-02  0.00000000E+00  0.00000000E+00
 -3.70276932E-01  0.00000000E+00  0.00000000E+00 -2.42303984E-02 -1.44694097E-02
  0.00000000E+00  0.00000000E+00 -6.64236594E-03  0.00000000E+00 -8.03919040E-02
  1.66962598E-01  3.18649233E-01  0.00000000E+00  0.00000000E+00  5.13822703E-01
  0.00000000E+00  0.00000000E+00  2.85279368E-01 -2.32696960E-02  0.00000000E+00
  0.00000000E+00  1.10849646E-03  0.00000000E+00  1.08733023E-01  6.71906905E-02
  0.00000000E+00 -8.84182143E-03 -6.18648495E-03  1.08733023E-01  6.71906905E-02
  0.00000000E+00  8.84182143E-03 -6.18648495E-03  0.00000000E+00  0.00000000E+00
  0.00000000E+00  3.71235466E-01  0.00000000E+00  0.00000000E+00  2.12256511E-01
  0.00000000E+00  0.00000000E+00  0.00000000E+00  4.15306160E-02  0.00000000E+00
  0.00000000E+00  0.00000000E+00  0.00000000E+00  0.00000000E+00  0.00000000E+00
  5.02249740E-01  0.00000000E+00  0.00000000E+00  3.05610302E-01  0.00000000E+00
  0.00000000E+00  0.00000000E+00 -2.53619172E-02  0.00000000E+00  0.00000000E+00
  0.00000000E+00  0.00000000E+00  0.00000000E+00  1.00783110E-02  0.00000000E+00
  0.00000000E+00  0.00000000E+00  0.00000000E+00  1.00783110E-02  0.00000000E+00
  0.00000000E+00  0.00000000E+00  0.00000000E+00  0.00000000E+00  0.00000000E+00
 -1.46442730E-01  0.00000000E+00  0.00000000E+00  4.08182136E-02  0.00000000E+00
  0.00000000E+00  0.00000000E+00  6.26527534E-02  0.00000000E+00  0.00000000E+00
  0.00000000E+00  0.00000000E+00  0.00000000E+00  0.00000000E+00  5.74172133E-01
  0.00000000E+00  0.00000000E+00  4.05672402E-01  0.00000000E+00  0.00000000E+00
  0.00000000E+00 -1.14503969E-02  0.00000000E+00  0.00000000E+00 -2.48513602E-01
 -2.29506950E-01  0.00000000E+00  1.76523346E-03 -4.95670866E-03  2.48513602E-01
  2.29506950E-01  0.00000000E+00  1.76523346E-03  4.95670866E-03  0.00000000E+00
  0.00000000E+00  0.00000000E+00  5.02664590E-01  0.00000000E+00  0.00000000E+00
  5.63669522E-01  0.00000000E+00  0.00000000E+00  0.00000000E+00 -3.73303935E-02
  0.00000000E+00  0.00000000E+00  0.00000000E+00  0.00000000E+00  0.00000000E+00
  0.00000000E+00 -4.38578090E-01  0.00000000E+00  0.00000000E+00 -4.55174470E-01
  0.00000000E+00  0.00000000E+00  0.00000000E+00 -4.84473519E-03  0.00000000E+00
  0.00000000E+00  0.00000000E+00  0.00000000E+00  0.00000000E+00  2.62674301E-02
  0.00000000E+00  0.00000000E+00  0.00000000E+00  0.00000000E+00  2.62674301E-02
  0.00000000E+00  0.00000000E+00 -1.14690097E-01  1.86918532E-01  1.75246302E+00
  0.00000000E+00  0.00000000E+00 -2.25811398E-01  0.00000000E+00  0.00000000E+00
 -5.01130358E-01  2.80692786E-03  0.00000000E+00  0.00000000E+00 -1.85505751E-03
  0.00000000E+00  7.73540980E-04 -4.42302537E-03  5.33495544E-03  0.00000000E+00
  0.00000000E+00  7.79534560E-02  0.00000000E+00  0.00000000E+00  1.04959803E-01
  6.81792665E-04  0.00000000E+00  0.00000000E+00  3.34541823E-03  0.00000000E+00
 -1.04628514E-01 -1.24406769E+00  0.00000000E+00 -3.06230129E-03 -2.07409018E-03
 -1.04628514E-01 -1.24406769E+00  0.00000000E+00  3.06230129E-03 -2.07409018E-03
  0.00000000E+00  0.00000000E+00  0.00000000E+00  0.00000000E+00 -4.61939543E-01
  0.00000000E+00  0.00000000E+00 -1.20451550E+00  0.00000000E+00  0.00000000E+00
  0.00000000E+00  6.77826891E-03  0.00000000E+00  0.00000000E+00  0.00000000E+00
  0.00000000E+00  0.00000000E+00  0.00000000E+00  1.42567146E-01  0.00000000E+00
  0.00000000E+00  2.97567022E-01  0.00000000E+00  0.00000000E+00  0.00000000E+00
  1.10791480E-02  0.00000000E+00  0.00000000E+00 -5.46754796E-03  1.65587237E+00
  0.00000000E+00  2.13637734E-03 -3.57365250E-03  5.46754796E-03 -1.65587237E+00
  0.00000000E+00  2.13637734E-03  3.57365250E-03 -4.77523330E-02  3.20594197E-02
  1.14405252E+00  0.00000000E+00  0.00000000E+00  9.46990113E-02  0.00000000E+00
  0.00000000E+00  1.64994722E+00 -1.74258582E-03  0.00000000E+00  0.00000000E+00
  2.34380540E-03  0.00000000E+00  1.02734676E-01 -1.11868339E-01 -1.59597767E+00
  0.00000000E+00  0.00000000E+00  1.70944392E-01  0.00000000E+00  0.00000000E+00
  5.81711731E-01 -2.51679383E-02  0.00000000E+00  0.00000000E+00 -1.49836414E-03
  0.00000000E+00 -2.49505472E-02  1.86003269E-01  0.00000000E+00  1.55916515E-02
  2.64152475E-02 -2.49505472E-02  1.86003269E-01  0.00000000E+00 -1.55916515E-02
  2.64152475E-02  0.00000000E+00  0.00000000E+00  0.00000000E+00 -9.85645765E-01
  0.00000000E+00  0.00000000E+00  1.12541885E+00  0.00000000E+00  0.00000000E+00
  0.00000000E+00 -3.42144657E-02  0.00000000E+00  0.00000000E+00  0.00000000E+00
  0.00000000E+00  0.00000000E+00  0.00000000E+00 -1.76964411E-02  0.00000000E+00
  0.00000000E+00 -1.13498014E-01  0.00000000E+00  0.00000000E+00  0.00000000E+00
  3.26192644E-02  0.00000000E+00  0.00000000E+00  0.00000000E+00  0.00000000E+00
  0.00000000E+00 -2.11248134E-02  0.00000000E+00  0.00000000E+00  0.00000000E+00
  0.00000000E+00 -2.11248134E-02  0.00000000E+00  0.00000000E+00  6.12735604E-02
  3.15110385E-02 -3.08994339E-01  0.00000000E+00  0.00000000E+00  5.40144318E-02
  0.00000000E+00  0.00000000E+00  3.11723032E-01  3.99660437E-03  0.00000000E+00
  0.00000000E+00 -2.51332874E-01  0.00000000E+00 -1.50433540E-02  9.56008345E-02
 -5.22227972E-02  0.00000000E+00  0.00000000E+00 -5.30539747E-02  0.00000000E+00
  0.00000000E+00 -4.65653901E-02  1.47621659E-03  0.00000000E+00  0.00000000E+00
 -8.17130590E-03  0.00000000E+00  8.28417010E-01 -4.43498161E-01  0.00000000E+00
  1.11539990E-01 -5.67382627E-03  8.28417010E-01 -4.43498161E-01  0.00000000E+00
 -1.11539990E-01 -5.67382627E-03  0.00000000E+00  0.00000000E+00  0.00000000E+00
  0.00000000E+00 -1.19071109E-02  0.00000000E+00  0.00000000E+00  1.29955360E+00
  0.00000000E+00  0.00000000E+00  0.00000000E+00  1.69276411E-01  0.00000000E+00
  0.00000000E+00  0.00000000E+00  0.00000000E+00  0.00000000E+00  0.00000000E+00
 -3.60808565E-01  0.00000000E+00  0.00000000E+00 -2.58207553E-01  0.00000000E+00
  0.00000000E+00  0.00000000E+00 -1.27077670E-02  0.00000000E+00  0.00000000E+00
 -7.80887175E-01  2.77525955E-03  0.00000000E+00  1.01098079E-03  9.42777976E-02
  7.80887175E-01 -2.77525955E-03  0.00000000E+00  1.01098079E-03 -9.42777976E-02
  0.00000000E+00  0.00000000E+00  0.00000000E+00  0.00000000E+00 -8.85334217E-01
  0.00000000E+00  0.00000000E+00  2.21099964E+00  0.00000000E+00  0.00000000E+00
  0.00000000E+00 -2.56067047E-01  0.00000000E+00  0.00000000E+00  0.00000000E+00
  0.00000000E+00  0.00000000E+00  0.00000000E+00 -6.86422173E-02  0.00000000E+00
  0.00000000E+00 -1.16616045E-01  0.00000000E+00  0.00000000E+00  0.00000000E+00
  2.26435119E-02  0.00000000E+00  0.00000000E+00  1.79345647E-01 -1.68756295E+00
  0.00000000E+00  1.50231780E-01 -9.87040260E-02 -1.79345647E-01  1.68756295E+00
  0.00000000E+00  1.50231780E-01  9.87040260E-02  4.93961522E-02 -2.24726258E-01
 -6.62467681E-01  0.00000000E+00  0.00000000E+00 -9.87510761E-01  0.00000000E+00
  0.00000000E+00  1.13011594E+00  2.97932171E-01  0.00000000E+00  0.00000000E+00
  3.38251827E-02  0.00000000E+00 -4.24902550E-02  1.80040810E-01 -3.55211239E-01
  0.00000000E+00  0.00000000E+00 -4.28416569E-01  0.00000000E+00  0.00000000E+00
 -2.58174774E-01 -9.09362115E-02  0.00000000E+00  0.00000000E+00 -6.35272400E-04
  0.00000000E+00  2.13466251E-02  4.71182016E-01  0.00000000E+00 -8.61010404E-02
 -1.44974585E-02  2.13466251E-02  4.71182016E-01  0.00000000E+00  8.61010404E-02
 -1.44974585E-02  1.35362868E-02 -1.43745020E+00  3.79478168E+00  0.00000000E+00
  0.00000000E+00  3.24714976E-01  0.00000000E+00  0.00000000E+00 -3.98842760E-01
  2.03182943E-01  0.00000000E+00  0.00000000E+00 -2.23688934E-02  0.00000000E+00
  2.49519354E-02 -4.13769625E-02 -7.77616669E-01  0.00000000E+00  0.00000000E+00
 -3.60444092E-01  0.00000000E+00  0.00000000E+00  7.46435628E-01 -4.49217928E-02
  0.00000000E+00  0.00000000E+00  1.08577883E-02  0.00000000E+00 -5.59364265E-03
 -1.15180767E+00  0.00000000E+00  1.08781794E-01 -1.48232896E-01 -5.59364265E-03
 -1.15180767E+00  0.00000000E+00 -1.08781794E-01 -1.48232896E-01  3.79095646E-02
  1.13925616E+00 -5.78496675E-01  0.00000000E+00  0.00000000E+00  3.49005658E-01
  0.00000000E+00  0.00000000E+00  5.50892501E-01  3.13144423E-01  0.00000000E+00
  0.00000000E+00 -1.58691707E-02  0.00000000E+00  6.03934802E-02 -2.18436873E-01
 -6.43619321E-01  0.00000000E+00  0.00000000E+00 -5.03891882E-01  0.00000000E+00
  0.00000000E+00  1.41682269E+00  3.72849374E-02  0.00000000E+00  0.00000000E+00
 -5.88272151E-03  0.00000000E+00  1.77725759E-02  3.79623134E-01  0.00000000E+00
 -6.90424538E-02 -3.65561216E-02  1.77725759E-02  3.79623134E-01  0.00000000E+00
  6.90424538E-02 -3.65561216E-02  0.00000000E+00  0.00000000E+00  0.00000000E+00
  0.00000000E+00  0.00000000E+00  0.00000000E+00  0.00000000E+00  0.00000000E+00
  0.00000000E+00  0.00000000E+00  0.00000000E+00  0.00000000E+00  0.00000000E+00
  6.60113974E-01  0.00000000E+00  0.00000000E+00  0.00000000E+00  0.00000000E+00
  0.00000000E+00  0.00000000E+00  0.00000000E+00  0.00000000E+00  0.00000000E+00
  0.00000000E+00  0.00000000E+00  0.00000000E+00  0.00000000E+00  4.04529947E-02
  0.00000000E+00  0.00000000E+00  3.41164964E-01  0.00000000E+00  0.00000000E+00
  0.00000000E+00  0.00000000E+00 -3.41164964E-01  0.00000000E+00  0.00000000E+00
  0.00000000E+00  0.00000000E+00  0.00000000E+00  4.08390618E-02  0.00000000E+00
  0.00000000E+00 -3.73309176E-01  0.00000000E+00  0.00000000E+00  0.00000000E+00
 -3.34446698E-02  0.00000000E+00  0.00000000E+00  0.00000000E+00  0.00000000E+00
  0.00000000E+00  0.00000000E+00 -9.43172895E-01  0.00000000E+00  0.00000000E+00
  1.20242323E+00  0.00000000E+00  0.00000000E+00  0.00000000E+00  1.98601365E-02
  0.00000000E+00  0.00000000E+00  0.00000000E+00  0.00000000E+00  0.00000000E+00
 -1.14632510E-01  0.00000000E+00  0.00000000E+00  0.00000000E+00  0.00000000E+00
 -1.14632510E-01  0.00000000E+00  0.00000000E+00  0.00000000E+00  0.00000000E+00
  0.00000000E+00  0.00000000E+00  2.19677702E-01  0.00000000E+00  0.00000000E+00
 -1.30038146E+00  0.00000000E+00  0.00000000E+00  0.00000000E+00 -4.15455662E-01
  0.00000000E+00  0.00000000E+00  0.00000000E+00  0.00000000E+00  0.00000000E+00
  0.00000000E+00 -8.09242084E-01  0.00000000E+00  0.00000000E+00  1.48993823E+00
  0.00000000E+00  0.00000000E+00  0.00000000E+00  5.04296461E-02  0.00000000E+00
  0.00000000E+00 -5.17945229E-03  6.05411742E-01  0.00000000E+00 -2.65188897E-02
 -6.06898446E-02  5.17945229E-03 -6.05411742E-01  0.00000000E+00 -2.65188897E-02
  6.06898446E-02  0.00000000E+00  0.00000000E+00  0.00000000E+00  1.30106416E-02
  0.00000000E+00  0.00000000E+00  5.08295590E-01  0.00000000E+00  0.00000000E+00
  0.00000000E+00  8.75096343E-01  0.00000000E+00  0.00000000E+00  0.00000000E+00
  0.00000000E+00  0.00000000E+00  0.00000000E+00 -7.87397105E-03  0.00000000E+00
  0.00000000E+00 -6.45242586E-01  0.00000000E+00  0.00000000E+00  0.00000000E+00
 -9.86853566E-02  0.00000000E+00  0.00000000E+00  0.00000000E+00  0.00000000E+00
  0.00000000E+00 -2.89330393E-01  0.00000000E+00  0.00000000E+00  0.00000000E+00
  0.00000000E+00 -2.89330393E-01  0.00000000E+00  0.00000000E+00 -3.50450983E-02
 -5.35368110E-01  1.26546188E+00  0.00000000E+00  0.00000000E+00 -5.94082342E-03
  0.00000000E+00  0.00000000E+00 -8.70971171E-01  1.61516540E-02  0.00000000E+00
  0.00000000E+00 -8.91359253E-01  0.00000000E+00 -5.04257423E-03 -1.16841978E-01
  3.50335320E-01  0.00000000E+00  0.00000000E+00 -1.43335765E-01  0.00000000E+00
  0.00000000E+00  1.40963382E-01 -1.53486515E-02  0.00000000E+00  0.00000000E+00
 -1.04168548E-01  0.00000000E+00 -6.72090957E-01 -2.54920894E-01  0.00000000E+00
  1.03624583E-02  2.87722751E-01 -6.72090957E-01 -2.54920894E-01  0.00000000E+00
 -1.03624583E-02  2.87722751E-01  0.00000000E+00  0.00000000E+00  0.00000000E+00
  0.00000000E+00 -1.11448467E-01  0.00000000E+00  0.00000000E+00  1.42455700E+00
  0.00000000E+00  0.00000000E+00  0.00000000E+00 -2.02929609E-01  0.00000000E+00
  0.00000000E+00  0.00000000E+00  0.00000000E+00  0.00000000E+00  0.00000000E+00
  2.31389171E-01  0.00000000E+00  0.00000000E+00 -5.66643921E-01  0.00000000E+00
  0.00000000E+00  0.00000000E+00 -2.33286210E-02  0.00000000E+00  0.00000000E+00
 -4.77094967E-01 -4.48976387E-01  0.00000000E+00 -4.94188753E-01 -4.68855865E-01
  4.77094967E-01  4.48976387E-01  0.00000000E+00 -4.94188753E-01  4.68855865E-01
  5.40234364E-02  6.83291979E-02  1.00662798E-01  0.00000000E+00  0.00000000E+00
 -2.30757184E-01  0.00000000E+00  0.00000000E+00 -4.12472912E-01 -3.30987721E-01
  0.00000000E+00  0.00000000E+00  4.57323904E-01  0.00000000E+00 -3.23603577E-02
  7.07437794E-01 -2.71832482E-01  0.00000000E+00  0.00000000E+00 -5.36327034E-01
  0.00000000E+00  0.00000000E+00  4.69073432E-01  4.02653245E-02  0.00000000E+00
  0.00000000E+00  5.36231231E-02  0.00000000E+00  3.33089670E-02 -9.42147963E-02
  0.00000000E+00  3.02381493E-01  4.64514118E-01  3.33089670E-02 -9.42147963E-02
  0.00000000E+00 -3.02381493E-01  4.64514118E-01  0.00000000E+00  0.00000000E+00
  0.00000000E+00  0.00000000E+00  1.61095233E-01  0.00000000E+00  0.00000000E+00
 -8.47552297E-02  0.00000000E+00  0.00000000E+00  0.00000000E+00  8.10897079E-01
  0.00000000E+00  0.00000000E+00  0.00000000E+00  0.00000000E+00  0.00000000E+00
  0.00000000E+00 -3.27508087E-01  0.00000000E+00  0.00000000E+00  5.53657664E-02
  0.00000000E+00  0.00000000E+00  0.00000000E+00 -1.97774174E-01  0.00000000E+00
  0.00000000E+00  4.22295864E-01 -2.89020201E-01  0.00000000E+00  5.22292002E-02
 -4.92383333E-01 -4.22295864E-01  2.89020201E-01  0.00000000E+00  5.22292002E-02
  4.92383333E-01  0.00000000E+00  0.00000000E+00  0.00000000E+00 -1.85487832E-01
  0.00000000E+00  0.00000000E+00 -3.58278773E-01  0.00000000E+00  0.00000000E+00
  0.00000000E+00  6.68311049E-01  0.00000000E+00  0.00000000E+00  0.00000000E+00
  0.00000000E+00  0.00000000E+00  0.00000000E+00 -2.17074826E-01  0.00000000E+00
  0.00000000E+00  1.01111552E-01  0.00000000E+00  0.00000000E+00  0.00000000E+00
 -8.72036868E-02  0.00000000E+00  0.00000000E+00  0.00000000E+00  0.00000000E+00
  0.00000000E+00  7.62453341E-01  0.00000000E+00  0.00000000E+00  0.00000000E+00
  0.00000000E+00  7.62453341E-01  0.00000000E+00  0.00000000E+00  1.42119686E-02
 -4.58115927E-02 -1.97007934E+00  0.00000000E+00  0.00000000E+00 -5.69181849E-01
  0.00000000E+00  0.00000000E+00 -1.31407041E+00 -8.95319815E-01  0.00000000E+00
  0.00000000E+00  1.32199135E-02  0.00000000E+00 -1.07464512E-02 -1.38509673E+00
  3.67863877E+00  0.00000000E+00  0.00000000E+00 -4.33098701E-01  0.00000000E+00
  0.00000000E+00 -8.96601045E-01 -1.06005642E-01  0.00000000E+00  0.00000000E+00
  1.07850180E-02  0.00000000E+00  3.59603121E-02 -2.08633915E-02  0.00000000E+00
  3.92105944E-02 -9.41725870E-02  3.59603121E-02 -2.08633915E-02  0.00000000E+00
 -3.92105944E-02 -9.41725870E-02  0.00000000E+00  0.00000000E+00  0.00000000E+00
  0.00000000E+00  0.00000000E+00  0.00000000E+00  0.00000000E+00  0.00000000E+00
  0.00000000E+00  0.00000000E+00  0.00000000E+00  0.00000000E+00  0.00000000E+00
  9.10810930E-01  0.00000000E+00  0.00000000E+00  0.00000000E+00  0.00000000E+00
  0.00000000E+00  0.00000000E+00  0.00000000E+00  0.00000000E+00  0.00000000E+00