H2O B3LYP/cc-pVDZ                                                       
Freq      RB3LYP                                                      CC-pVDZ             
Number of atoms                            I                3
Info1-9                                    I   N=           9
          12          12        1002           0           0         100
           6          18        -502
Charge                                     I                0
Multiplicity                               I                1
Number of electrons                        I               10
Number of alpha electrons                  I                5
Number of beta electrons                   I                5
Number of basis functions                  I               24
Number of independent functions            I               24
Number of point charges in /Mol/           I                0
Number of translation vectors              I                0
Atomic numbers                             I   N=           3
           8           1           1
Nuclear charges                            R   N=           3
  8.00000000E+00  1.00000000E+00  1.00000000E+00
Current cartesian coordinates              R   N=           9
 -7.39557099E-32  2.95822839E-31  2.28719627E-01 -9.86076132E-32  1.42920305E+00
 -9.14878510E-01 -1.75026894E-16 -1.42920305E+00 -9.14878510E-01
Force Field                                I                0
Int Atom Types                             I   N=           3
           0           0           0
MM charges                                 R   N=           3
  0.00000000E+00  0.00000000E+00  0.00000000E+00
Integer atomic weights                     I   N=           3
          16           1           1
Real atomic weights                        R   N=           3
  1.59949146E+01  1.00782504E+00  1.00782504E+00
Atom fragment info                         I   N=           3
           0           0           0
Atom residue num                           I   N=           3
           0           0           0
Nuclear spins                              I   N=           3
           0           1           1
Nuclear ZEff                               R   N=           3
 -5.60000000E+00 -1.00000000E+00 -1.00000000E+00
Nuclear QMom                               R   N=           3
  0.00000000E+00  0.00000000E+00  0.00000000E+00
Nuclear GFac                               R   N=           3
  0.00000000E+00  2.79284600E+00  2.79284600E+00
MicOpt                                     I   N=           3
          -1          -1          -1
Number of contracted shells                I               12
Number of primitive shells                 I               30
Pure/Cartesian d shells                    I                0
Pure/Cartesian f shells                    I                0
Highest angular momentum                   I                2
Largest degree of contraction              I                7
Shell types                                I   N=          12
           0           0           0           1           1          -2
           0           0           1           0           0           1
Number of primitives per shell             I   N=          12
           7           7           1           3           1           1
           3           1           1           3           1           1
Shell to atom map                          I   N=          12
           1           1           1           1           1           1
           2           2           2           3           3           3
Primitive exponents                        R   N=          30
  1.17200000E+04  1.75900000E+03  4.00800000E+02  1.13700000E+02  3.70300000E+01
  1.32700000E+01  5.02500000E+00  1.17200000E+04  4.00800000E+02  1.13700000E+02
  3.70300000E+01  1.32700000E+01  5.02500000E+00  1.01300000E+00  3.02300000E-01
  1.77000000E+01  3.85400000E+00  1.04600000E+00  2.75300000E-01  1.18500000E+00
  1.30100000E+01  1.96200000E+00  4.44600000E-01  1.22000000E-01  7.27000000E-01
  1.30100000E+01  1.96200000E+00  4.44600000E-01  1.22000000E-01  7.27000000E-01
Contraction coefficients                   R   N=          30
  7.11864434E-04  5.48520199E-03  2.79099296E-02  1.05133208E-01  2.84002490E-01
  4.51673946E-01  2.73208126E-01  7.69030046E-06  3.13484579E-04 -2.96614853E-03
 -1.08753543E-02 -1.20753817E-01 -1.06275264E-01  1.09597548E+00  1.00000000E+00
  6.26791663E-02  3.33536566E-01  7.41239642E-01  1.00000000E+00  1.00000000E+00
  3.34987264E-02  2.34800801E-01  8.13682958E-01  1.00000000E+00  1.00000000E+00
  3.34987264E-02  2.34800801E-01  8.13682958E-01  1.00000000E+00  1.00000000E+00
Coordinates of each shell                  R   N=          36
 -4.93038066E-32  1.97215226E-31  2.28719627E-01 -4.93038066E-32  1.97215226E-31
  2.28719627E-01 -4.93038066E-32  1.97215226E-31  2.28719627E-01 -4.93038066E-32
  1.97215226E-31  2.28719627E-01 -4.93038066E-32  1.97215226E-31  2.28719627E-01
 -4.93038066E-32  1.97215226E-31  2.28719627E-01 -9.86076132E-32  1.42920305E+00
 -9.14878510E-01 -9.86076132E-32  1.42920305E+00 -9.14878510E-01 -9.86076132E-32
  1.42920305E+00 -9.14878510E-01 -1.75026894E-16 -1.42920305E+00 -9.14878510E-01
 -1.75026894E-16 -1.42920305E+00 -9.14878510E-01 -1.75026894E-16 -1.42920305E+00
 -9.14878510E-01
Constraint Structure                       R   N=           9
 -4.93038066E-32  1.97215226E-31  2.28719627E-01 -9.86076132E-32  1.42920305E+00
 -9.14878510E-01 -1.75026894E-16 -1.42920305E+00 -9.14878510E-01
Num ILSW                                   I              100
ILSW                                       I   N=         100
           0           0           0           0           2           0
           0           0           0           0         402          -1
           0           0           0           0           2           0
           0           0           0           0           1           0
           1           0           0           0           0           0
           0           0      100000           0          -1           0
           0           0           0           0           0           0
           0           0           0           1           0           0
           0           0           1           0           0           0
           0           0           4          40           0           0
           0           0           5           0           0           0
           0           0           0           0           0           0
           0           0           0           0           0           0
           0           0           0           0           0           0
           0           0           0           0           0           0
           0           0           0           0           0           0
           0           0           0           0
Num RLSW                                   I               40
RLSW                                       R   N=          40
  8.00000000E-01  7.20000000E-01  1.00000000E+00  8.10000000E-01  2.00000000E-01
  0.00000000E+00  0.00000000E+00  1.00000000E+00  0.00000000E+00  0.00000000E+00
  0.00000000E+00  0.00000000E+00  1.00000000E+00  0.00000000E+00  0.00000000E+00
  0.00000000E+00  0.00000000E+00  1.00000000E+00  0.00000000E+00  0.00000000E+00
  0.00000000E+00  0.00000000E+00  1.00000000E+00  0.00000000E+00  0.00000000E+00
  0.00000000E+00  0.00000000E+00  1.00000000E+00  0.00000000E+00  0.00000000E+00
  0.00000000E+00  0.00000000E+00  1.00000000E+00  0.00000000E+00  0.00000000E+00
  0.00000000E+00  0.00000000E+00  0.00000000E+00  1.00000000E+00  1.00000000E+00
MxBond                                     I                1
NBond                                      I   N=           3
           0           0           0
IBond                                      I   N=           3
           0           0           0
RBond                                      R   N=           3
  0.00000000E+00  0.00000000E+00  0.00000000E+00
Virial Ratio                               R      2.005170054552516E+00
SCF Energy                                 R     -7.642062648277255E+01
Total Energy                               R     -7.642062648277255E+01
RMS Force                                  R      6.580483894791377E-05
RMS Density                                R      3.944362165784514E-10
External E-field                           R   N=          35
  0.00000000E+00  0.00000000E+00  0.00000000E+00  0.00000000E+00  0.00000000E+00
  0.00000000E+00  0.00000000E+00  0.00000000E+00  0.00000000E+00  0.00000000E+00
  0.00000000E+00  0.00000000E+00  0.00000000E+00  0.00000000E+00  0.00000000E+00
  0.00000000E+00  0.00000000E+00  0.00000000E+00  0.00000000E+00  0.00000000E+00
  0.00000000E+00  0.00000000E+00  0.00000000E+00  0.00000000E+00  0.00000000E+00
  0.00000000E+00  0.00000000E+00  0.00000000E+00  0.00000000E+00  0.00000000E+00
  0.00000000E+00  0.00000000E+00  0.00000000E+00  0.00000000E+00  0.00000000E+00
IOpCl                                      I                0
IROHF                                      I                0
Alpha Orbital Energies                     R   N=          24
 -1.91247438E+01 -9.91982477E-01 -5.06730491E-01 -3.67565243E-01 -2.87768364E-01
  4.92222378E-02  1.25185190E-01  5.49513236E-01  6.11858869E-01  9.03952786E-01
  9.18113369E-01  9.96198963E-01  1.19006477E+00  1.23658010E+00  1.41618340E+00
  1.59077168E+00  1.67017586E+00  2.08999590E+00  2.13177665E+00  2.92100112E+00
  2.94983907E+00  3.12446064E+00  3.44532270E+00  3.73562841E+00
Alpha MO coefficients                      R   N=         576
  9.96421464E-01  2.16986292E-02 -6.93806236E-03  0.00000000E+00  0.00000000E+00
 -1.96539502E-03  0.00000000E+00  0.00000000E+00  8.15812016E-04  1.33281775E-05
  0.00000000E+00  0.00000000E+00 -3.94447229E-04  0.00000000E+00 -3.71405240E-04
  9.84260312E-04  0.00000000E+00  8.95425539E-04 -8.42906740E-04 -3.71405240E-04
  9.84260312E-04  0.00000000E+00 -8.95425539E-04 -8.42906740E-04 -2.06200695E-01
  4.42299416E-01  3.53291402E-01  0.00000000E+00  0.00000000E+00 -1.15159318E-01
  0.00000000E+00  0.00000000E+00  7.19885771E-03  2.49684888E-03  0.00000000E+00
  0.00000000E+00 -4.39239014E-03  0.00000000E+00  2.02807919E-01  1.54111805E-02
  0.00000000E+00 -3.64773434E-02  1.93571624E-02  2.02807919E-01  1.54111805E-02
  0.00000000E+00  3.64773434E-02  1.93571624E-02  0.00000000E+00  0.00000000E+00
  0.00000000E+00  0.00000000E+00  5.03673017E-01  0.00000000E+00  0.00000000E+00
  2.02175035E-01  0.00000000E+00  0.00000000E+00  0.00000000E+00 -2.33787146E-02
  0.00000000E+00  0.00000000E+00  3.27675441E-01  1.13571536E-01  0.00000000E+00
 -1.50379920E-02  2.82654703E-02 -3.27675441E-01 -1.13571536E-01  0.00000000E+00
 -1.50379920E-02 -2.82654703E-02 -8.32645667E-02  1.67139716E-01  3.82076029E-01
  0.00000000E+00  0.00000000E+00  5.43521618E-01  0.00000000E+00  0.00000000E+00
  3.48145916E-01 -1.84548548E-02  0.00000000E+00  0.00000000E+00  1.89220832E-03
  0.00000000E+00 -2.04310238E-01 -5.01182028E-02  0.00000000E+00  2.50602079E-02
  1.44798537E-02 -2.04310238E-01 -5.01182028E-02  0.00000000E+00 -2.50602079E-02
  1.44798537E-02  0.00000000E+00  0.00000000E+00  0.00000000E+00  6.36807870E-01
  0.00000000E+00  0.00000000E+00  4.88789754E-01  0.00000000E+00  0.00000000E+00
  0.00000000E+00 -1.93028949E-02  0.00000000E+00  0.00000000E+00  0.00000000E+00
  0.00000000E+00  0.00000000E+00  3.26806783E-02  0.00000000E+00  0.00000000E+00
  0.00000000E+00  0.00000000E+00  3.26806783E-02  0.00000000E+00  0.00000000E+00
 -8.79245282E-02  1.26467022E-01  8.92966693E-01  0.00000000E+00  0.00000000E+00
 -2.50846452E-01  0.00000000E+00  0.00000000E+00 -3.18741579E-01  8.67116119E-03
  0.00000000E+00  0.00000000E+00 -4.11053351E-03  0.00000000E+00 -1.07626345E-01
 -7.64021320E-01  0.00000000E+00 -2.89432742E-03 -3.92307622E-03 -1.07626345E-01
 -7.64021320E-01  0.00000000E+00  2.89432742E-03 -3.92307622E-03  0.00000000E+00
  0.00000000E+00  0.00000000E+00  0.00000000E+00 -3.71325017E-01  0.00000000E+00
  0.00000000E+00 -6.12886630E-01  0.00000000E+00  0.00000000E+00  0.00000000E+00
  1.00890772E-02  0.00000000E+00  0.00000000E+00  1.05613367E-01  1.30449387E+00
  0.00000000E+00 -1.91959879E-03 -2.69640131E-03 -1.05613367E-01 -1.30449387E+00
  0.00000000E+00 -1.91959879E-03  2.69640131E-03  0.00000000E+00  0.00000000E+00
  0.00000000E+00  0.00000000E+00 -2.88345634E-01  0.00000000E+00  0.00000000E+00
 -3.23907211E-01  0.00000000E+00  0.00000000E+00  0.00000000E+00 -1.04645727E-01
  0.00000000E+00  0.00000000E+00  9.39964620E-01 -8.71298983E-01  0.00000000E+00
  5.86914887E-02 -1.30029391E-01 -9.39964620E-01  8.71298983E-01  0.00000000E+00
  5.86914887E-02  1.30029391E-01  4.22526047E-02 -2.48282488E-01  3.55118167E-01
  0.00000000E+00  0.00000000E+00  3.90101513E-01  0.00000000E+00  0.00000000E+00
 -6.58492691E-02  2.70443527E-03  0.00000000E+00  0.00000000E+00 -9.53809735E-02
  0.00000000E+00  8.02438662E-01 -6.15289710E-01  0.00000000E+00  2.49256818E-01
 -6.05087962E-02  8.02438662E-01 -6.15289710E-01  0.00000000E+00 -2.49256818E-01
 -6.05087962E-02  5.42185028E-02 -1.60600447E-01 -6.13108395E-01  0.00000000E+00
  0.00000000E+00 -7.44175352E-01  0.00000000E+00  0.00000000E+00  1.24536861E+00
 -1.47474006E-02  0.00000000E+00  0.00000000E+00 -1.98552008E-02  0.00000000E+00
  5.47006918E-01  7.55456437E-02  0.00000000E+00 -2.48363241E-02  2.38250239E-01
  5.47006918E-01  7.55456437E-02  0.00000000E+00  2.48363241E-02  2.38250239E-01
  0.00000000E+00  0.00000000E+00  0.00000000E+00 -9.64038084E-01  0.00000000E+00
  0.00000000E+00  1.00364288E+00  0.00000000E+00  0.00000000E+00  0.00000000E+00
  1.85358692E-03  0.00000000E+00  0.00000000E+00  0.00000000E+00  0.00000000E+00
  0.00000000E+00  3.72344724E-02  0.00000000E+00  0.00000000E+00  0.00000000E+00
  0.00000000E+00  3.72344724E-02  0.00000000E+00  0.00000000E+00  0.00000000E+00
  0.00000000E+00  0.00000000E+00  0.00000000E+00 -7.55357366E-01  0.00000000E+00
  0.00000000E+00  1.75443604E+00  0.00000000E+00  0.00000000E+00  0.00000000E+00
 -2.10661891E-02  0.00000000E+00  0.00000000E+00 -3.63845235E-01 -8.36204036E-01
  0.00000000E+00  2.55515047E-01 -1.38262437E-01  3.63845235E-01  8.36204036E-01
  0.00000000E+00  2.55515047E-01  1.38262437E-01  3.85458403E-02 -5.23097685E-01
  4.50801861E-01  0.00000000E+00  0.00000000E+00 -1.32810355E-01  0.00000000E+00
  0.00000000E+00  7.54818670E-01  1.26912257E-01  0.00000000E+00  0.00000000E+00
  1.72749218E-02  0.00000000E+00  3.45487007E-01 -2.02001139E-01  0.00000000E+00
 -3.61643689E-01 -5.13392837E-01  3.45487007E-01 -2.02001139E-01  0.00000000E+00
  3.61643689E-01 -5.13392837E-01  0.00000000E+00  0.00000000E+00  0.00000000E+00
  0.00000000E+00  0.00000000E+00  0.00000000E+00  0.00000000E+00  0.00000000E+00
  0.00000000E+00  0.00000000E+00  0.00000000E+00  0.00000000E+00  0.00000000E+00
  1.40752838E-01  0.00000000E+00  0.00000000E+00  6.83620285E-01  0.00000000E+00
  0.00000000E+00  0.00000000E+00  0.00000000E+00 -6.83620285E-01  0.00000000E+00
  0.00000000E+00  0.00000000E+00  0.00000000E+00  0.00000000E+00  2.00316889E-02
  0.00000000E+00  0.00000000E+00 -6.59539430E-01  0.00000000E+00  0.00000000E+00
  0.00000000E+00 -1.70731611E-01  0.00000000E+00  0.00000000E+00  0.00000000E+00
  0.00000000E+00  0.00000000E+00  7.57888786E-01  0.00000000E+00  0.00000000E+00
  0.00000000E+00  0.00000000E+00  7.57888786E-01  0.00000000E+00  0.00000000E+00
  5.65352858E-04 -1.62709602E+00  3.01102034E+00  0.00000000E+00  0.00000000E+00
 -6.29911570E-02  0.00000000E+00  0.00000000E+00 -9.95274978E-01 -1.17917128E-01
  0.00000000E+00  0.00000000E+00  1.12102108E-01  0.00000000E+00 -8.00735415E-01
 -3.99311642E-01  0.00000000E+00  3.45848109E-01  1.37529554E-02 -8.00735415E-01
 -3.99311642E-01  0.00000000E+00 -3.45848109E-01  1.37529554E-02  0.00000000E+00
  0.00000000E+00  0.00000000E+00  0.00000000E+00  2.45085417E-03  0.00000000E+00
  0.00000000E+00  8.93752731E-01  0.00000000E+00  0.00000000E+00  0.00000000E+00
  3.37389240E-02  0.00000000E+00  0.00000000E+00 -3.70225507E-01 -1.06710551E-01
  0.00000000E+00 -4.51428892E-01 -7.08559007E-01  3.70225507E-01  1.06710551E-01
  0.00000000E+00 -4.51428892E-01  7.08559007E-01  0.00000000E+00  0.00000000E+00
  0.00000000E+00  0.00000000E+00  7.61976168E-01  0.00000000E+00  0.00000000E+00
  1.75452059E-01  0.00000000E+00  0.00000000E+00  0.00000000E+00  1.34548493E-01
  0.00000000E+00  0.00000000E+00 -2.52640069E-01 -3.84076551E-01  0.00000000E+00
  7.44548465E-01 -5.39412157E-01  2.52640069E-01  3.84076551E-01  0.00000000E+00
  7.44548465E-01  5.39412157E-01 -5.57418106E-02  6.39429719E-01  9.02979926E-01
  0.00000000E+00  0.00000000E+00 -6.36263487E-01  0.00000000E+00  0.00000000E+00
 -2.25016618E-01 -4.68785429E-02  0.00000000E+00  0.00000000E+00  2.13657052E-01
  0.00000000E+00 -4.67829093E-01 -1.91293809E-01  0.00000000E+00  7.43273454E-01
 -5.64570238E-01 -4.67829093E-01 -1.91293809E-01  0.00000000E+00 -7.43273454E-01
 -5.64570238E-01  0.00000000E+00  0.00000000E+00  0.00000000E+00  1.98272472E-02
  0.00000000E+00  0.00000000E+00 -3.14936291E-01  0.00000000E+00  0.00000000E+00
  0.00000000E+00  1.04010264E+00  0.00000000E+00  0.00000000E+00  0.00000000E+00
  0.00000000E+00  0.00000000E+00  4.00387289E-01  0.00000000E+00  0.00000000E+00
  0.00000000E+00  0.00000000E+00  4.00387289E-01  0.00000000E+00  0.00000000E+00
  0.00000000E+00  0.00000000E+00  0.00000000E+00  0.00000000E+00  0.00000000E+00
  0.00000000E+00  0.00000000E+00  0.00000000E+00  0.00000000E+00  0.00000000E+00
  0.00000000E+00  0.00000000E+00  0.00000000E+00  1.05932472E+00  0.00000000E+00
  0.00000000E+00 -3.66786259E-01  0.00000000E+00  0.00000000E+00  0.00000000E+00
  0.00000000E+00  3.66786259E-01  0.00000000E+00  0.00000000E+00 -9.92392772E-03
 -1.49412041E-01  4.10599294E-01  0.00000000E+00  0.00000000E+00  1.91734684E-02
  0.00000000E+00  0.00000000E+00 -4.80379774E-01  1.06347216E+00  0.00000000E+00
  0.00000000E+00  2.69953281E-01  0.00000000E+00 -2.28820667E-01 -2.29933412E-02
  0.00000000E+00  3.13160387E-01  3.38918190E-01 -2.28820667E-01 -2.29933412E-02
  0.00000000E+00 -3.13160387E-01  3.38918190E-01 -6.41893137E-02 -2.49521572E-01
  2.30342686E+00  0.00000000E+00  0.00000000E+00 -3.76112592E-01  0.00000000E+00
  0.00000000E+00 -9.84965729E-01  2.41342915E-01  0.00000000E+00  0.00000000E+00
 -1.13069299E+00  0.00000000E+00 -1.21946211E+00 -2.05496871E-01  0.00000000E+00
  6.30974372E-01 -4.77636789E-01 -1.21946211E+00 -2.05496871E-01  0.00000000E+00
 -6.30974372E-01 -4.77636789E-01  0.00000000E+00  0.00000000E+00  0.00000000E+00
  0.00000000E+00 -4.30247457E-01  0.00000000E+00  0.00000000E+00 -1.14584779E+00
  0.00000000E+00  0.00000000E+00  0.00000000E+00  1.32492180E+00  0.00000000E+00
  0.00000000E+00  1.04792978E+00  3.07568439E-01  0.00000000E+00 -5.99557084E-01
  5.15043738E-01 -1.04792978E+00 -3.07568439E-01  0.00000000E+00 -5.99557084E-01
 -5.15043738E-01
Total SCF Density                          R   N=         300
  2.08461490E+00 -1.66996567E-01  4.48070578E-01 -2.23151124E-01  4.39940227E-01
  5.41690086E-01  0.00000000E+00  0.00000000E+00  0.00000000E+00  8.11048526E-01
  0.00000000E+00  0.00000000E+00  0.00000000E+00  4.93038066E-32  5.07373016E-01
 -4.69370446E-02  7.97330068E-02  3.33990841E-01  0.00000000E+00  0.00000000E+00
  6.17362561E-01  0.00000000E+00  0.00000000E+00  0.00000000E+00  6.22530324E-01
  3.08148791E-32  0.00000000E+00  4.77830848E-01  0.00000000E+00  0.00000000E+00
  0.00000000E+00  3.08148791E-32  2.03660220E-01  0.00000000E+00  1.84889275E-32
  8.17494898E-02 -5.93194713E-02  1.22781524E-01  2.71111686E-01  0.00000000E+00
  0.00000000E+00  3.76788425E-01  0.00000000E+00  0.00000000E+00  2.42516135E-01
  2.07012799E-03 -3.95979038E-03 -1.23382697E-02  2.54362631E-33 -8.13960420E-33
 -2.06363483E-02  1.57944670E-33 -5.05422944E-33 -1.28139940E-02  6.93632195E-04
 -2.82682123E-34  5.87843596E-34  1.62120060E-33 -2.45844707E-02 -2.58525160E-33
  6.06053994E-34 -1.88701145E-02 -1.66790426E-33  4.65184237E-34 -5.47691987E-35
  7.45203500E-04  2.85220561E-34  1.14137779E-34 -2.59073146E-33 -2.54355399E-33
 -2.35504554E-02 -1.40382380E-32 -1.33432341E-33 -9.45318488E-03 -6.67508257E-33
  3.96078512E-34  1.28395330E-34  1.09312859E-03  7.10248619E-04 -3.27009480E-03
 -1.65217906E-03 -3.78420526E-34  1.21094568E-33  3.07011205E-03 -1.54523704E-34
  4.94475852E-34  1.25364522E-03 -9.17856427E-05 -8.12315607E-35 -4.70573711E-34
  4.60582641E-05 -1.80689628E-34  3.61379256E-34  1.00074255E-33  1.85372595E-50
  0.00000000E+00  8.89548937E-34  7.56947837E-51  0.00000000E+00  5.55968086E-34
 -5.66464879E-35  2.93930954E-34 -1.34738501E-34  7.20969869E-36  1.38152664E-36
 -5.03548132E-02  1.11090820E-01 -1.28183471E-02  1.23259516E-32  3.30082556E-01
 -2.68803046E-01  5.39260384E-33  1.32495588E-01 -1.39340185E-01  8.55378311E-03
 -2.11267873E-33 -1.53212612E-02 -2.55452507E-03  1.22312979E-33  3.80490116E-01
  3.95202480E-03 -3.07805788E-03 -2.74223103E-02  3.85185989E-33  1.14405836E-01
 -5.80340043E-02  1.73333695E-33  4.59226584E-02 -3.46734034E-02  1.92683332E-03
 -6.11564895E-34 -5.31031302E-03 -3.25828472E-04  4.96896477E-34  1.01158818E-01
  3.12976024E-02  4.33334237E-34 -8.66668475E-34 -2.40741243E-34  4.16226263E-02
  7.70371978E-34  1.34815096E-33  3.19479614E-02  9.62964972E-34  5.77778983E-34
 -1.95602260E-35 -1.26166339E-03  1.73740027E-34  4.25663066E-35 -6.21766389E-36
 -1.34815096E-33 -2.64815367E-34  2.13605347E-03  1.26544949E-02 -2.38518443E-02
 -6.63687922E-03  7.70371978E-34 -1.51484616E-02  3.56394217E-02  9.62964972E-34
 -6.08061313E-03  1.69254886E-02 -1.10709795E-03 -5.55968086E-35  7.03137845E-04
  4.14577319E-04  4.86472075E-35 -3.48917288E-02 -7.05027603E-03  2.52778305E-34
  4.37110719E-03 -1.20740189E-02  2.19270607E-02  2.47539444E-02  9.62964972E-34
  2.84731094E-02  1.12852251E-02  4.33334237E-34  1.14291449E-02  1.03595275E-02
 -4.37805847E-04 -1.38992021E-35 -1.32162073E-03 -1.14585655E-04  1.73740027E-35
  2.04592340E-02  5.56387142E-03 -6.01853108E-35 -1.53808079E-03  2.76802641E-03
 -5.03548132E-02  1.11090820E-01 -1.28183471E-02 -1.23259516E-32 -3.30082556E-01
 -2.68803046E-01 -5.39260384E-33 -1.32495588E-01 -1.39340185E-01  8.55378311E-03
  0.00000000E+00  1.53212612E-02 -2.55452507E-03 -2.55745320E-33 -4.89946623E-02
 -4.76995943E-02 -4.81482486E-34 -1.51814061E-02 -1.65883679E-02  3.80490116E-01
  3.95202480E-03 -3.07805788E-03 -2.74223103E-02 -3.85185989E-33 -1.14405836E-01
 -5.80340043E-02 -1.73333695E-33 -4.59226584E-02 -3.46734034E-02  1.92683332E-03
  1.38992021E-34  5.31031302E-03 -3.25828472E-04 -8.16578126E-34 -4.76995943E-02
 -2.02963724E-02 -7.52316385E-36 -2.18724660E-04 -7.27674006E-03  1.01158818E-01
  3.12976024E-02 -4.33334237E-34  8.66668475E-34  2.40741243E-34  4.16226263E-02
  7.70371978E-34 -1.34815096E-33  3.19479614E-02  9.62964972E-34 -5.77778983E-34
  1.33912316E-34 -1.26166339E-03 -1.59840825E-34 -1.12931017E-35  6.21766389E-36
  4.81482486E-34  7.52316385E-36  2.13605347E-03 -4.81482486E-35 -6.01853108E-36
  1.34815096E-33  2.64815367E-34  2.13605347E-03 -1.26544949E-02  2.38518443E-02
  6.63687922E-03  7.70371978E-34 -1.51484616E-02 -3.56394217E-02  9.62964972E-34
 -6.08061313E-03 -1.69254886E-02  1.10709795E-03 -5.55968086E-35  7.03137845E-04
 -4.14577319E-04 -4.86472075E-35  1.51814061E-02  2.18724660E-04 -4.81482486E-35
 -3.46654237E-03 -1.62142880E-04  3.48917288E-02  7.05027603E-03  2.52778305E-34
  4.37110719E-03 -1.20740189E-02  2.19270607E-02  2.47539444E-02 -9.62964972E-34
 -2.84731094E-02  1.12852251E-02 -4.33334237E-34 -1.14291449E-02  1.03595275E-02
 -4.37805847E-04  8.33952129E-35  1.32162073E-03 -1.14585655E-04  1.73740027E-35
 -1.65883679E-02 -7.27674006E-03  6.01853108E-36  1.62142880E-04 -4.27720840E-04
  2.04592340E-02  5.56387142E-03  6.01853108E-35  1.53808079E-03  2.76802641E-03
QEq coupling tensors                       R   N=          18
  1.96730137E+00  1.81303027E-16 -1.65777707E+00  1.26921248E-16  2.77555756E-17
 -3.09524308E-01  2.62011668E-01  4.35958299E-18 -2.15170946E-01  1.60801163E-18
  3.16972866E-01 -4.68407224E-02  2.62011668E-01 -1.08815340E-16 -2.15170946E-01
 -8.61477565E-17 -3.16972866E-01 -4.68407224E-02
Mulliken Charges                           R   N=           3
 -2.62477960E-01  1.31238980E-01  1.31238980E-01
Optimization MaxStp                        I                2
Optimization Job offset                    I                0
Optimization Num results per geometry      I                2
Optimization Num geometry variables        I                9
Opt point       1 Results for each geome   R   N=           2
 -7.64206265E+01  0.00000000E+00
Opt point       1 Geometries               R   N=           9
 -4.93038066E-32  1.97215226E-31  2.28719627E-01 -9.86076132E-32  1.42920305E+00
 -9.14878510E-01 -1.75026894E-16 -1.42920305E+00 -9.14878510E-01
Opt point       1 Gradient at each geome   R   N=           9
  6.88602654E-16 -4.05347617E-16  7.10742767E-05  1.75406983E-17 -1.25289988E-04
 -3.55371383E-05 -7.06143353E-16  1.25289988E-04 -3.55371383E-05
Optimization Number of geometries          I   N=           1
           1
ONIOM Charges                              I   N=          16
           0           0           0           0           0           0
           0           0           0           0           0           0
           0           0           0           0
ONIOM Multiplicities                       I   N=          16
           1           0           0           0           0           0
           0           0           0           0           0           0
           0           0           0           0
Atom Layers                                I   N=           3
           1           1           1
Atom Modifiers                             I   N=           3
           0           0           0
Force Field                                I                0
Int Atom Modified Types                    I   N=           3
           0           0           0
Link Atoms                                 I   N=           3
           0           0           0
Atom Modified MM Charges                   R   N=           3
  0.00000000E+00  0.00000000E+00  0.00000000E+00
Link Distances                             R   N=          12
  0.00000000E+00  0.00000000E+00  0.00000000E+00  0.00000000E+00  0.00000000E+00
  0.00000000E+00  0.00000000E+00  0.00000000E+00  0.00000000E+00  0.00000000E+00
  0.00000000E+00  0.00000000E+00
Cartesian Gradient                         R   N=           9
  6.88602654E-16 -4.05347617E-16  7.10742767E-05  1.75406983E-17 -1.25289988E-04
 -3.55371383E-05 -7.06143353E-16  1.25289988E-04 -3.55371383E-05
Cartesian Force Constants                  R   N=          45
 -4.32274980E-05 -2.16044302E-12  6.41315122E-01  7.38064375E-12  1.75541616E-11
  4.52608855E-01  2.16137490E-05 -1.27373390E-12 -2.99541532E-12 -8.70496519E-05
  2.04921310E-12 -3.20657561E-01  1.93782023E-01  2.70372394E-12  3.53971334E-01
 -3.83528303E-12  2.56585338E-01 -2.26304427E-01  7.27668081E-14 -2.25183681E-01
  2.15768139E-01  2.16137477E-05 -7.24062565E-15 -2.59706209E-12  6.54359038E-05
 -2.74740473E-12  3.01432621E-12 -8.70496519E-05  1.48002368E-12 -3.20657561E-01
 -1.93782023E-01 -2.74738732E-12 -3.33137726E-02 -3.14016573E-02  2.70324888E-12
  3.53971334E-01  2.04745632E-12 -2.56585338E-01 -2.26304427E-01 -3.01430814E-12
  3.14016573E-02  1.05362881E-02 -7.31244977E-14  2.25183681E-01  2.15768139E-01
Dipole Moment                              R   N=           3
 -2.51106432E-17  4.75314232E-16 -7.62781726E-01
Dipole Derivatives                         R   N=          27
 -6.66994556E-01  1.85418115E-11 -6.76322916E-12  9.68830251E-12 -3.94359285E-01
 -1.24179339E-10 -7.33962236E-12 -3.91913448E-11 -3.01562091E-01  3.33497278E-01
 -9.87132393E-12 -1.17638731E-11 -3.93760462E-11  1.97179643E-01  6.84640442E-02
  2.32070218E-12  1.09064257E-01  1.50781046E-01  3.33497278E-01 -9.41521493E-12
  1.87513992E-11 -4.04561054E-11  1.97179643E-01 -6.84640442E-02 -3.18372988E-12
 -1.09064257E-01  1.50781046E-01
Polarizability                             R   N=           6
  3.20291306E+00  7.05796951E-11  7.40311680E+00 -9.77868873E-11 -3.54682506E-10
  5.59316103E+00
