 Entering Gaussian System, Link 0=/Users/kyagi/Work/pgm/gaussian/g09/g09
 Initial command:
 /Users/kyagi/Work/pgm/gaussian/g09/l1.exe "/Volumes/SSD-WAT/scr/h2co-b3lyp-dz.14995/Gau-15001.inp" -scrdir="/Volumes/SSD-WAT/scr/h2co-b3lyp-dz.14995/"
 Entering Link 1 = /Users/kyagi/Work/pgm/gaussian/g09/l1.exe PID=     15002.
  
 Copyright (c) 1988,1990,1992,1993,1995,1998,2003,2009,2013,
            Gaussian, Inc.  All Rights Reserved.
  
 This is part of the Gaussian(R) 09 program.  It is based on
 the Gaussian(R) 03 system (copyright 2003, Gaussian, Inc.),
 the Gaussian(R) 98 system (copyright 1998, Gaussian, Inc.),
 the Gaussian(R) 94 system (copyright 1995, Gaussian, Inc.),
 the Gaussian 92(TM) system (copyright 1992, Gaussian, Inc.),
 the Gaussian 90(TM) system (copyright 1990, Gaussian, Inc.),
 the Gaussian 88(TM) system (copyright 1988, Gaussian, Inc.),
 the Gaussian 86(TM) system (copyright 1986, Carnegie Mellon
 University), and the Gaussian 82(TM) system (copyright 1983,
 Carnegie Mellon University). Gaussian is a federally registered
 trademark of Gaussian, Inc.
  
 This software contains proprietary and confidential information,
 including trade secrets, belonging to Gaussian, Inc.
  
 This software is provided under written license and may be
 used, copied, transmitted, or stored only in accord with that
 written license.
  
 The following legend is applicable only to US Government
 contracts under FAR:
  
                    RESTRICTED RIGHTS LEGEND
  
 Use, reproduction and disclosure by the US Government is
 subject to restrictions as set forth in subparagraphs (a)
 and (c) of the Commercial Computer Software - Restricted
 Rights clause in FAR 52.227-19.
  
 Gaussian, Inc.
 340 Quinnipiac St., Bldg. 40, Wallingford CT 06492
  
  
 ---------------------------------------------------------------
 Warning -- This program may not be used in any manner that
 competes with the business of Gaussian, Inc. or will provide
 assistance to any competitor of Gaussian, Inc.  The licensee
 of this program is prohibited from giving any competitor of
 Gaussian, Inc. access to this program.  By using this program,
 the user acknowledges that Gaussian, Inc. is engaged in the
 business of creating and licensing software in the field of
 computational chemistry and represents and warrants to the
 licensee that it is not a competitor of Gaussian, Inc. and that
 it will not use this program in any manner prohibited above.
 ---------------------------------------------------------------
  

 Cite this work as:
 Gaussian 09, Revision D.01,
 M. J. Frisch, G. W. Trucks, H. B. Schlegel, G. E. Scuseria, 
 M. A. Robb, J. R. Cheeseman, G. Scalmani, V. Barone, B. Mennucci, 
 G. A. Petersson, H. Nakatsuji, M. Caricato, X. Li, H. P. Hratchian, 
 A. F. Izmaylov, J. Bloino, G. Zheng, J. L. Sonnenberg, M. Hada, 
 M. Ehara, K. Toyota, R. Fukuda, J. Hasegawa, M. Ishida, T. Nakajima, 
 Y. Honda, O. Kitao, H. Nakai, T. Vreven, J. A. Montgomery, Jr., 
 J. E. Peralta, F. Ogliaro, M. Bearpark, J. J. Heyd, E. Brothers, 
 K. N. Kudin, V. N. Staroverov, T. Keith, R. Kobayashi, J. Normand, 
 K. Raghavachari, A. Rendell, J. C. Burant, S. S. Iyengar, J. Tomasi, 
 M. Cossi, N. Rega, J. M. Millam, M. Klene, J. E. Knox, J. B. Cross, 
 V. Bakken, C. Adamo, J. Jaramillo, R. Gomperts, R. E. Stratmann, 
 O. Yazyev, A. J. Austin, R. Cammi, C. Pomelli, J. W. Ochterski, 
 R. L. Martin, K. Morokuma, V. G. Zakrzewski, G. A. Voth, 
 P. Salvador, J. J. Dannenberg, S. Dapprich, A. D. Daniels, 
 O. Farkas, J. B. Foresman, J. V. Ortiz, J. Cioslowski, 
 and D. J. Fox, Gaussian, Inc., Wallingford CT, 2013.
 
 ******************************************
 Gaussian 09:  EM64M-G09RevD.01 24-Apr-2013
                 9-May-2017 
 ******************************************
 %chk=h2co-b3lyp-dz.chk
 %mem=1000MB
 -------------------------
 #p b3lyp/cc-pvdz opt freq
 -------------------------
 1/14=-1,18=20,19=15,26=3,38=1/1,3;
 2/9=110,12=2,17=6,18=5,40=1/2;
 3/5=16,11=2,16=1,25=1,30=1,71=1,74=-5/1,2,3;
 4//1;
 5/5=2,38=5/2;
 6/7=2,8=2,9=2,10=2,28=1/1;
 7//1,2,3,16;
 1/14=-1,18=20,19=15,26=3/3(2);
 2/9=110/2;
 99//99;
 2/9=110/2;
 3/5=16,11=2,16=1,25=1,30=1,71=1,74=-5/1,2,3;
 4/5=5,16=3,69=1/1;
 5/5=2,38=5/2;
 7//1,2,3,16;
 1/14=-1,18=20,19=15,26=3/3(-5);
 2/9=110/2;
 6/7=2,8=2,9=2,10=2,19=2,28=1/1;
 99/9=1/99;
 Leave Link    1 at Tue May  9 14:08:32 2017, MaxMem=   131072000 cpu:         0.0
 (Enter /Users/kyagi/Work/pgm/gaussian/g09/l101.exe)
 -----------------------------
 H2CO b3lyp/cc-pvdz (opt/freq)
 -----------------------------
 Symbolic Z-matrix:
 Charge =  0 Multiplicity = 1
 C                     0.        0.       -0.5326 
 O                     0.        0.        0.6803 
 H                    -0.93586   0.       -1.11098 
 H                     0.93586   0.       -1.11098 
 
 NAtoms=      4 NQM=        4 NQMF=       0 NMMI=      0 NMMIF=      0
                NMic=       0 NMicF=      0.
                    Isotopes and Nuclear Properties:
 (Nuclear quadrupole moments (NQMom) in fm**2, nuclear magnetic moments (NMagM)
  in nuclear magnetons)

  Atom         1           2           3           4
 IAtWgt=          12          16           1           1
 AtmWgt=  12.0000000  15.9949146   1.0078250   1.0078250
 NucSpn=           0           0           1           1
 AtZEff=   0.0000000   0.0000000   0.0000000   0.0000000
 NQMom=    0.0000000   0.0000000   0.0000000   0.0000000
 NMagM=    0.0000000   0.0000000   2.7928460   2.7928460
 AtZNuc=   6.0000000   8.0000000   1.0000000   1.0000000
 Leave Link  101 at Tue May  9 14:08:32 2017, MaxMem=   131072000 cpu:         0.1
 (Enter /Users/kyagi/Work/pgm/gaussian/g09/l103.exe)

 GradGradGradGradGradGradGradGradGradGradGradGradGradGradGradGradGradGrad
 Berny optimization.
 Initialization pass.
                           ----------------------------
                           !    Initial Parameters    !
                           ! (Angstroms and Degrees)  !
 --------------------------                            --------------------------
 ! Name  Definition              Value          Derivative Info.                !
 --------------------------------------------------------------------------------
 ! R1    R(1,2)                  1.2129         estimate D2E/DX2                !
 ! R2    R(1,3)                  1.1002         estimate D2E/DX2                !
 ! R3    R(1,4)                  1.1002         estimate D2E/DX2                !
 ! A1    A(2,1,3)              121.7168         estimate D2E/DX2                !
 ! A2    A(2,1,4)              121.7168         estimate D2E/DX2                !
 ! A3    A(3,1,4)              116.5664         estimate D2E/DX2                !
 ! D1    D(2,1,4,3)            180.0            estimate D2E/DX2                !
 --------------------------------------------------------------------------------
 Trust Radius=3.00D-01 FncErr=1.00D-07 GrdErr=1.00D-06
 Number of steps in this run=     20 maximum allowed number of steps=    100.
 GradGradGradGradGradGradGradGradGradGradGradGradGradGradGradGradGradGrad

 Leave Link  103 at Tue May  9 14:08:32 2017, MaxMem=   131072000 cpu:         0.0
 (Enter /Users/kyagi/Work/pgm/gaussian/g09/l202.exe)
                          Input orientation:                          
 ---------------------------------------------------------------------
 Center     Atomic      Atomic             Coordinates (Angstroms)
 Number     Number       Type             X           Y           Z
 ---------------------------------------------------------------------
      1          6           0        0.000000    0.000000   -0.532603
      2          8           0        0.000000    0.000000    0.680303
      3          1           0       -0.935861    0.000000   -1.110982
      4          1           0        0.935861    0.000000   -1.110982
 ---------------------------------------------------------------------
                    Distance matrix (angstroms):
                    1          2          3          4
     1  C    0.000000
     2  O    1.212906   0.000000
     3  H    1.100162   2.021024   0.000000
     4  H    1.100162   2.021024   1.871721   0.000000
 Stoichiometry    CH2O
 Framework group  C2V[C2(CO),SGV(H2)]
 Deg. of freedom     3
 Full point group                 C2V     NOp   4
 Largest Abelian subgroup         C2V     NOp   4
 Largest concise Abelian subgroup C2      NOp   2
                         Standard orientation:                         
 ---------------------------------------------------------------------
 Center     Atomic      Atomic             Coordinates (Angstroms)
 Number     Number       Type             X           Y           Z
 ---------------------------------------------------------------------
      1          6           0        0.000000    0.000000   -0.534156
      2          8           0        0.000000    0.000000    0.678750
      3          1           0        0.000000    0.935861   -1.112535
      4          1           0        0.000000   -0.935861   -1.112535
 ---------------------------------------------------------------------
 Rotational constants (GHZ):    286.2726024     38.5030056     33.9383727
 Leave Link  202 at Tue May  9 14:08:32 2017, MaxMem=   131072000 cpu:         0.0
 (Enter /Users/kyagi/Work/pgm/gaussian/g09/l301.exe)
 Standard basis: CC-pVDZ (5D, 7F)
 Ernie: Thresh=  0.10000D-02 Tol=  0.10000D-05 Strict=F.
 Ernie:  4 primitive shells out of 54 were deleted.
 There are    20 symmetry adapted cartesian basis functions of A1  symmetry.
 There are     3 symmetry adapted cartesian basis functions of A2  symmetry.
 There are     7 symmetry adapted cartesian basis functions of B1  symmetry.
 There are    10 symmetry adapted cartesian basis functions of B2  symmetry.
 There are    18 symmetry adapted basis functions of A1  symmetry.
 There are     3 symmetry adapted basis functions of A2  symmetry.
 There are     7 symmetry adapted basis functions of B1  symmetry.
 There are    10 symmetry adapted basis functions of B2  symmetry.
    38 basis functions,    80 primitive gaussians,    40 cartesian basis functions
     8 alpha electrons        8 beta electrons
       nuclear repulsion energy        31.1859484792 Hartrees.
 IExCor=  402 DFT=T Ex+Corr=B3LYP ExCW=0 ScaHFX=  0.200000
 ScaDFX=  0.800000  0.720000  1.000000  0.810000 ScalE2=  1.000000  1.000000
 IRadAn=      0 IRanWt=     -1 IRanGd=            0 ICorTp=0 IEmpDi=  4
 NAtoms=    4 NActive=    4 NUniq=    3 SFac= 1.78D+00 NAtFMM=   60 NAOKFM=F Big=F
 Integral buffers will be    131072 words long.
 Raffenetti 2 integral format.
 Two-electron integral symmetry is turned on.
 Leave Link  301 at Tue May  9 14:08:32 2017, MaxMem=   131072000 cpu:         0.0
 (Enter /Users/kyagi/Work/pgm/gaussian/g09/l302.exe)
 NPDir=0 NMtPBC=     1 NCelOv=     1 NCel=       1 NClECP=     1 NCelD=      1
         NCelK=      1 NCelE2=     1 NClLst=     1 CellRange=     0.0.
 One-electron integrals computed using PRISM.
 One-electron integral symmetry used in STVInt
 NBasis=    38 RedAO= T EigKep=  3.55D-02  NBF=    18     3     7    10
 NBsUse=    38 1.00D-06 EigRej= -1.00D+00 NBFU=    18     3     7    10
 Precomputing XC quadrature grid using
 IXCGrd= 4 IRadAn=           0 IRanWt=          -1 IRanGd=           0 AccXCQ= 0.00D+00.
 Generated NRdTot=       0 NPtTot=           0 NUsed=           0 NTot=          32
 NSgBfM=    40    40    40    40    40 MxSgAt=     4 MxSgA2=     4.
 Leave Link  302 at Tue May  9 14:08:32 2017, MaxMem=   131072000 cpu:         0.1
 (Enter /Users/kyagi/Work/pgm/gaussian/g09/l303.exe)
 DipDrv:  MaxL=1.
 Leave Link  303 at Tue May  9 14:08:32 2017, MaxMem=   131072000 cpu:         0.0
 (Enter /Users/kyagi/Work/pgm/gaussian/g09/l401.exe)
 ExpMin= 1.22D-01 ExpMax= 1.17D+04 ExpMxC= 4.01D+02 IAcc=1 IRadAn=         1 AccDes= 0.00D+00
 Harris functional with IExCor=  402 and IRadAn=       1 diagonalized for initial guess.
 HarFok:  IExCor=  402 AccDes= 0.00D+00 IRadAn=         1 IDoV= 1 UseB2=F ITyADJ=14
 ICtDFT=  3500011 ScaDFX=  1.000000  1.000000  1.000000  1.000000
 FoFCou: FMM=F IPFlag=           0 FMFlag=      100000 FMFlg1=           0
         NFxFlg=           0 DoJE=T BraDBF=F KetDBF=T FulRan=T
         wScrn=  0.000000 ICntrl=     500 IOpCl=  0 I1Cent=   200000004 NGrid=           0
         NMat0=    1 NMatS0=      1 NMatT0=    0 NMatD0=    1 NMtDS0=    0 NMtDT0=    0
 Petite list used in FoFCou.
 Harris En= -114.514140939667    
 JPrj=0 DoOrth=F DoCkMO=F.
 Initial guess orbital symmetries:
       Occupied  (A1) (A1) (A1) (A1) (B2) (A1) (B1) (B2)
       Virtual   (B1) (A1) (B2) (A1) (B1) (A1) (B2) (A1) (B2) (A1)
                 (A1) (A2) (B1) (B2) (B1) (A1) (B2) (A1) (B2) (A1)
                 (B1) (A2) (A1) (B2) (A1) (A2) (A1) (B1) (B2) (A1)
 The electronic state of the initial guess is 1-A1.
 Leave Link  401 at Tue May  9 14:08:32 2017, MaxMem=   131072000 cpu:         0.1
 (Enter /Users/kyagi/Work/pgm/gaussian/g09/l502.exe)
 Closed shell SCF:
 Using DIIS extrapolation, IDIIS=  1040.
 Integral symmetry usage will be decided dynamically.
 Keep R1 ints in memory in symmetry-blocked form, NReq=1162159.
 IVT=       23998 IEndB=       23998 NGot=   131072000 MDV=   130971124
 LenX=   130971124 LenY=   130969083
 Requested convergence on RMS density matrix=1.00D-08 within 128 cycles.
 Requested convergence on MAX density matrix=1.00D-06.
 Requested convergence on             energy=1.00D-06.
 No special actions if energy rises.
 FoFCou: FMM=F IPFlag=           0 FMFlag=           0 FMFlg1=           0
         NFxFlg=           0 DoJE=F BraDBF=F KetDBF=F FulRan=T
         wScrn=  0.000000 ICntrl=     600 IOpCl=  0 I1Cent=           0 NGrid=           0
         NMat0=    1 NMatS0=    741 NMatT0=    0 NMatD0=    1 NMtDS0=    0 NMtDT0=    0
 Petite list used in FoFCou.
 Integral accuracy reduced to 1.0D-05 until final iterations.

 Cycle   1  Pass 0  IDiag  1:
 E= -114.455857985902    
 DIIS: error= 4.80D-02 at cycle   1 NSaved=   1.
 NSaved= 1 IEnMin= 1 EnMin= -114.455857985902     IErMin= 1 ErrMin= 4.80D-02
 ErrMax= 4.80D-02  0.00D+00 EMaxC= 1.00D-01 BMatC= 6.08D-02 BMatP= 6.08D-02
 IDIUse=3 WtCom= 5.20D-01 WtEn= 4.80D-01
 Coeff-Com:  0.100D+01
 Coeff-En:   0.100D+01
 Coeff:      0.100D+01
 Gap=     0.169 Goal=   None    Shift=    0.000
 GapD=    0.169 DampG=1.000 DampE=0.500 DampFc=0.5000 IDamp=-1.
 Damping current iteration by 5.00D-01
 RMSDP=1.59D-02 MaxDP=1.77D-01              OVMax= 2.84D-01

 Cycle   2  Pass 0  IDiag  1:
 E= -114.454549731384     Delta-E=        0.001308254519 Rises=F Damp=T
 DIIS: error= 2.42D-02 at cycle   2 NSaved=   2.
 NSaved= 2 IEnMin= 1 EnMin= -114.455857985902     IErMin= 2 ErrMin= 2.42D-02
 ErrMax= 2.42D-02  0.00D+00 EMaxC= 1.00D-01 BMatC= 1.99D-02 BMatP= 6.08D-02
 IDIUse=3 WtCom= 7.58D-01 WtEn= 2.42D-01
 Coeff-Com:  0.346D+00 0.654D+00
 Coeff-En:   0.509D+00 0.491D+00
 Coeff:      0.386D+00 0.614D+00
 Gap=     0.214 Goal=   None    Shift=    0.000
 RMSDP=3.43D-03 MaxDP=3.51D-02 DE= 1.31D-03 OVMax= 2.04D-01

 Cycle   3  Pass 0  IDiag  1:
 E= -114.504885414921     Delta-E=       -0.050335683538 Rises=F Damp=F
 DIIS: error= 7.81D-03 at cycle   3 NSaved=   3.
 NSaved= 3 IEnMin= 3 EnMin= -114.504885414921     IErMin= 3 ErrMin= 7.81D-03
 ErrMax= 7.81D-03  0.00D+00 EMaxC= 1.00D-01 BMatC= 2.05D-03 BMatP= 1.99D-02
 IDIUse=3 WtCom= 9.22D-01 WtEn= 7.81D-02
 Coeff-Com:  0.137D+00 0.265D+00 0.598D+00
 Coeff-En:   0.000D+00 0.000D+00 0.100D+01
 Coeff:      0.126D+00 0.245D+00 0.630D+00
 Gap=     0.218 Goal=   None    Shift=    0.000
 RMSDP=1.32D-03 MaxDP=1.49D-02 DE=-5.03D-02 OVMax= 1.96D-02

 Cycle   4  Pass 0  IDiag  1:
 E= -114.506946554099     Delta-E=       -0.002061139178 Rises=F Damp=F
 DIIS: error= 2.03D-03 at cycle   4 NSaved=   4.
 NSaved= 4 IEnMin= 4 EnMin= -114.506946554099     IErMin= 4 ErrMin= 2.03D-03
 ErrMax= 2.03D-03  0.00D+00 EMaxC= 1.00D-01 BMatC= 1.63D-04 BMatP= 2.05D-03
 IDIUse=3 WtCom= 9.80D-01 WtEn= 2.03D-02
 Coeff-Com:  0.161D-01 0.661D-02 0.216D+00 0.761D+00
 Coeff-En:   0.000D+00 0.000D+00 0.000D+00 0.100D+01
 Coeff:      0.158D-01 0.648D-02 0.212D+00 0.766D+00
 Gap=     0.220 Goal=   None    Shift=    0.000
 RMSDP=2.51D-04 MaxDP=3.81D-03 DE=-2.06D-03 OVMax= 4.00D-03

 Cycle   5  Pass 0  IDiag  1:
 E= -114.507094567240     Delta-E=       -0.000148013141 Rises=F Damp=F
 DIIS: error= 3.54D-04 at cycle   5 NSaved=   5.
 NSaved= 5 IEnMin= 5 EnMin= -114.507094567240     IErMin= 5 ErrMin= 3.54D-04
 ErrMax= 3.54D-04  0.00D+00 EMaxC= 1.00D-01 BMatC= 3.08D-06 BMatP= 1.63D-04
 IDIUse=3 WtCom= 9.96D-01 WtEn= 3.54D-03
 Coeff-Com:  0.292D-02-0.892D-02 0.327D-01 0.152D+00 0.821D+00
 Coeff-En:   0.000D+00 0.000D+00 0.000D+00 0.000D+00 0.100D+01
 Coeff:      0.291D-02-0.889D-02 0.326D-01 0.152D+00 0.822D+00
 Gap=     0.221 Goal=   None    Shift=    0.000
 RMSDP=4.20D-05 MaxDP=3.77D-04 DE=-1.48D-04 OVMax= 5.28D-04

 Cycle   6  Pass 0  IDiag  1:
 E= -114.507097352509     Delta-E=       -0.000002785269 Rises=F Damp=F
 DIIS: error= 3.87D-05 at cycle   6 NSaved=   6.
 NSaved= 6 IEnMin= 6 EnMin= -114.507097352509     IErMin= 6 ErrMin= 3.87D-05
 ErrMax= 3.87D-05  0.00D+00 EMaxC= 1.00D-01 BMatC= 6.05D-08 BMatP= 3.08D-06
 IDIUse=1 WtCom= 1.00D+00 WtEn= 0.00D+00
 Coeff-Com:  0.403D-03-0.119D-02 0.612D-03-0.101D-02 0.185D-01 0.983D+00
 Coeff:      0.403D-03-0.119D-02 0.612D-03-0.101D-02 0.185D-01 0.983D+00
 Gap=     0.221 Goal=   None    Shift=    0.000
 RMSDP=6.29D-06 MaxDP=6.02D-05 DE=-2.79D-06 OVMax= 7.29D-05

 Initial convergence to 1.0D-05 achieved.  Increase integral accuracy.
 Cycle   7  Pass 1  IDiag  1:
 E= -114.507091932434     Delta-E=        0.000005420075 Rises=F Damp=F
 DIIS: error= 8.78D-06 at cycle   1 NSaved=   1.
 NSaved= 1 IEnMin= 1 EnMin= -114.507091932434     IErMin= 1 ErrMin= 8.78D-06
 ErrMax= 8.78D-06  0.00D+00 EMaxC= 1.00D-01 BMatC= 1.19D-09 BMatP= 1.19D-09
 IDIUse=1 WtCom= 1.00D+00 WtEn= 0.00D+00
 Coeff-Com:  0.100D+01
 Coeff:      0.100D+01
 Gap=     0.221 Goal=   None    Shift=    0.000
 RMSDP=6.29D-06 MaxDP=6.02D-05 DE= 5.42D-06 OVMax= 4.05D-05

 Cycle   8  Pass 1  IDiag  1:
 E= -114.507091932893     Delta-E=       -0.000000000459 Rises=F Damp=F
 DIIS: error= 7.11D-06 at cycle   2 NSaved=   2.
 NSaved= 2 IEnMin= 2 EnMin= -114.507091932893     IErMin= 2 ErrMin= 7.11D-06
 ErrMax= 7.11D-06  0.00D+00 EMaxC= 1.00D-01 BMatC= 1.87D-09 BMatP= 1.19D-09
 IDIUse=1 WtCom= 1.00D+00 WtEn= 0.00D+00
 Coeff-Com:  0.579D+00 0.421D+00
 Coeff:      0.579D+00 0.421D+00
 Gap=     0.221 Goal=   None    Shift=    0.000
 RMSDP=9.68D-07 MaxDP=1.45D-05 DE=-4.59D-10 OVMax= 2.59D-05

 Cycle   9  Pass 1  IDiag  1:
 E= -114.507091934204     Delta-E=       -0.000000001311 Rises=F Damp=F
 DIIS: error= 3.01D-06 at cycle   3 NSaved=   3.
 NSaved= 3 IEnMin= 3 EnMin= -114.507091934204     IErMin= 3 ErrMin= 3.01D-06
 ErrMax= 3.01D-06  0.00D+00 EMaxC= 1.00D-01 BMatC= 2.94D-10 BMatP= 1.19D-09
 IDIUse=1 WtCom= 1.00D+00 WtEn= 0.00D+00
 Coeff-Com: -0.142D-01 0.283D+00 0.731D+00
 Coeff:     -0.142D-01 0.283D+00 0.731D+00
 Gap=     0.221 Goal=   None    Shift=    0.000
 RMSDP=2.61D-07 MaxDP=3.60D-06 DE=-1.31D-09 OVMax= 5.82D-06

 Cycle  10  Pass 1  IDiag  1:
 E= -114.507091934422     Delta-E=       -0.000000000218 Rises=F Damp=F
 DIIS: error= 2.55D-07 at cycle   4 NSaved=   4.
 NSaved= 4 IEnMin= 4 EnMin= -114.507091934422     IErMin= 4 ErrMin= 2.55D-07
 ErrMax= 2.55D-07  0.00D+00 EMaxC= 1.00D-01 BMatC= 2.26D-12 BMatP= 2.94D-10
 IDIUse=1 WtCom= 1.00D+00 WtEn= 0.00D+00
 Coeff-Com: -0.122D-01 0.755D-01 0.144D+00 0.793D+00
 Coeff:     -0.122D-01 0.755D-01 0.144D+00 0.793D+00
 Gap=     0.221 Goal=   None    Shift=    0.000
 RMSDP=3.11D-08 MaxDP=3.55D-07 DE=-2.18D-10 OVMax= 5.97D-07

 Cycle  11  Pass 1  IDiag  1:
 E= -114.507091934425     Delta-E=       -0.000000000002 Rises=F Damp=F
 DIIS: error= 5.47D-08 at cycle   5 NSaved=   5.
 NSaved= 5 IEnMin= 5 EnMin= -114.507091934425     IErMin= 5 ErrMin= 5.47D-08
 ErrMax= 5.47D-08  0.00D+00 EMaxC= 1.00D-01 BMatC= 1.30D-13 BMatP= 2.26D-12
 IDIUse=1 WtCom= 1.00D+00 WtEn= 0.00D+00
 Coeff-Com: -0.380D-02 0.213D-01 0.268D-01 0.315D+00 0.641D+00
 Coeff:     -0.380D-02 0.213D-01 0.268D-01 0.315D+00 0.641D+00
 Gap=     0.221 Goal=   None    Shift=    0.000
 RMSDP=9.68D-09 MaxDP=8.44D-08 DE=-2.39D-12 OVMax= 1.17D-07

 SCF Done:  E(RB3LYP) =  -114.507091934     A.U. after   11 cycles
            NFock= 11  Conv=0.97D-08     -V/T= 2.0062
 KE= 1.138055717798D+02 PE=-3.311450901357D+02 EE= 7.164647794229D+01
 Leave Link  502 at Tue May  9 14:08:33 2017, MaxMem=   131072000 cpu:         0.5
 (Enter /Users/kyagi/Work/pgm/gaussian/g09/l601.exe)
 Copying SCF densities to generalized density rwf, IOpCl= 0 IROHF=0.

 **********************************************************************

            Population analysis using the SCF density.

 **********************************************************************

 Orbital symmetries:
       Occupied  (A1) (A1) (A1) (A1) (B2) (A1) (B1) (B2)
       Virtual   (B1) (A1) (B2) (A1) (B1) (A1) (B2) (B2) (A1) (A1)
                 (A1) (A2) (B1) (B2) (B1) (A1) (B2) (A1) (B2) (B1)
                 (A1) (A2) (A1) (B2) (A1) (A2) (A1) (B1) (B2) (A1)
 The electronic state is 1-A1.
 Alpha  occ. eigenvalues --  -19.15822 -10.28658  -1.05727  -0.63785  -0.49553
 Alpha  occ. eigenvalues --   -0.44725  -0.39666  -0.26659
 Alpha virt. eigenvalues --   -0.04593   0.06901   0.13436   0.20774   0.45097
 Alpha virt. eigenvalues --    0.46372   0.54441   0.59624   0.62250   0.76448
 Alpha virt. eigenvalues --    0.87484   0.92615   0.98054   1.05552   1.16629
 Alpha virt. eigenvalues --    1.41947   1.43369   1.54282   1.67368   1.67411
 Alpha virt. eigenvalues --    1.69023   1.74355   2.25526   2.33240   2.40710
 Alpha virt. eigenvalues --    2.67405   2.80611   3.02652   3.32508   3.41086
          Condensed to atoms (all electrons):
               1          2          3          4
     1  C    4.400180   0.700586   0.361932   0.361932
     2  O    0.700586   7.587580  -0.048863  -0.048863
     3  H    0.361932  -0.048863   0.780944  -0.101547
     4  H    0.361932  -0.048863  -0.101547   0.780944
 Mulliken charges:
               1
     1  C    0.175371
     2  O   -0.190439
     3  H    0.007534
     4  H    0.007534
 Sum of Mulliken charges =   0.00000
 Mulliken charges with hydrogens summed into heavy atoms:
               1
     1  C    0.190439
     2  O   -0.190439
 Electronic spatial extent (au):  <R**2>=             60.2180
 Charge=              0.0000 electrons
 Dipole moment (field-independent basis, Debye):
    X=              0.0000    Y=              0.0000    Z=             -2.1310  Tot=              2.1310
 Quadrupole moment (field-independent basis, Debye-Ang):
   XX=            -11.3905   YY=            -11.4972   ZZ=            -11.8782
   XY=              0.0000   XZ=              0.0000   YZ=              0.0000
 Traceless Quadrupole moment (field-independent basis, Debye-Ang):
   XX=              0.1981   YY=              0.0914   ZZ=             -0.2896
   XY=              0.0000   XZ=              0.0000   YZ=              0.0000
 Octapole moment (field-independent basis, Debye-Ang**2):
  XXX=              0.0000  YYY=              0.0000  ZZZ=              1.3720  XYY=              0.0000
  XXY=              0.0000  XXZ=              0.9751  XZZ=              0.0000  YZZ=              0.0000
  YYZ=              0.1787  XYZ=              0.0000
 Hexadecapole moment (field-independent basis, Debye-Ang**3):
 XXXX=             -9.3773 YYYY=            -18.2331 ZZZZ=            -44.1968 XXXY=              0.0000
 XXXZ=              0.0000 YYYX=              0.0000 YYYZ=              0.0000 ZZZX=              0.0000
 ZZZY=              0.0000 XXYY=             -4.8267 XXZZ=             -8.8569 YYZZ=            -10.1720
 XXYZ=              0.0000 YYXZ=              0.0000 ZZXY=              0.0000
 N-N= 3.118594847917D+01 E-N=-3.311450933521D+02  KE= 1.138055717798D+02
 Symmetry A1   KE= 1.034583802266D+02
 Symmetry A2   KE= 1.724275997709D-35
 Symmetry B1   KE= 3.616771773270D+00
 Symmetry B2   KE= 6.730419779967D+00
 No NMR shielding tensors so no spin-rotation constants.
 Leave Link  601 at Tue May  9 14:08:33 2017, MaxMem=   131072000 cpu:         0.1
 (Enter /Users/kyagi/Work/pgm/gaussian/g09/l701.exe)
 Compute integral first derivatives.
 ... and contract with generalized density number  0.
 Leave Link  701 at Tue May  9 14:08:33 2017, MaxMem=   131072000 cpu:         0.1
 (Enter /Users/kyagi/Work/pgm/gaussian/g09/l702.exe)
 L702 exits ... SP integral derivatives will be done elsewhere.
 Leave Link  702 at Tue May  9 14:08:33 2017, MaxMem=   131072000 cpu:         0.0
 (Enter /Users/kyagi/Work/pgm/gaussian/g09/l703.exe)
 Compute integral first derivatives, UseDBF=F ICtDFT=           0.
 Integral derivatives from FoFJK, PRISM(SPDF).
 Calling FoFJK, ICntrl=      2127 FMM=F ISym2X=1 I1Cent= 0 IOpClX= 0 NMat=1 NMatS=1 NMatT=0.
 FoFJK:  IHMeth= 1 ICntrl=    2127 DoSepK=F KAlg= 0 I1Cent=   0 FoldK=F
 IRaf=         0 NMat=   1 IRICut=       1 DoRegI=T DoRafI=F ISym2E= 1.
 FoFCou: FMM=F IPFlag=           0 FMFlag=      100000 FMFlg1=         800
         NFxFlg=           0 DoJE=F BraDBF=F KetDBF=F FulRan=T
         wScrn=  0.000000 ICntrl=    2127 IOpCl=  0 I1Cent=           0 NGrid=           0
         NMat0=    1 NMatS0=      1 NMatT0=    0 NMatD0=    1 NMtDS0=    0 NMtDT0=    0
 Petite list used in FoFCou.
 Leave Link  703 at Tue May  9 14:08:33 2017, MaxMem=   131072000 cpu:         0.2
 (Enter /Users/kyagi/Work/pgm/gaussian/g09/l716.exe)
 Dipole        = 7.01518939D-18 0.00000000D+00-8.38411640D-01
 ***** Axes restored to original set *****
 -------------------------------------------------------------------
 Center     Atomic                   Forces (Hartrees/Bohr)
 Number     Number              X              Y              Z
 -------------------------------------------------------------------
      1        6           0.000000000    0.000000000    0.024851978
      2        8           0.000000000    0.000000000   -0.010461915
      3        1          -0.008780343    0.000000000   -0.007195031
      4        1           0.008780343    0.000000000   -0.007195031
 -------------------------------------------------------------------
 Cartesian Forces:  Max     0.024851978 RMS     0.009059057
 Leave Link  716 at Tue May  9 14:08:33 2017, MaxMem=   131072000 cpu:         0.0
 (Enter /Users/kyagi/Work/pgm/gaussian/g09/l103.exe)

 GradGradGradGradGradGradGradGradGradGradGradGradGradGradGradGradGradGrad
 Berny optimization.
 FormGI is forming the generalized inverse of G from B-inverse, IUseBI=4.
 Internal  Forces:  Max     0.011251640 RMS     0.007262160
 Search for a local minimum.
 Step number   1 out of a maximum of   20
 All quantities printed in internal units (Hartrees-Bohrs-Radians)
 RMS Force = .72622D-02 SwitMx=.10000D-02 MixMth= 1
 Mixed Optimization -- RFO/linear search
 Second derivative matrix not updated -- first step.
 The second derivative matrix:
                          R1        R2        R3        A1        A2
           R1           0.98597
           R2           0.00000   0.33664
           R3           0.00000   0.00000   0.33664
           A1           0.00000   0.00000   0.00000   0.16000
           A2           0.00000   0.00000   0.00000   0.00000   0.16000
           A3           0.00000   0.00000   0.00000   0.00000   0.00000
           D1           0.00000   0.00000   0.00000   0.00000   0.00000
                          A3        D1
           A3           0.16000
           D1           0.00000   0.00230
 ITU=  0
     Eigenvalues ---    0.00230   0.16000   0.16000   0.33664   0.33664
     Eigenvalues ---    0.98597
 RFO step:  Lambda=-9.01560103D-04 EMin= 2.30000000D-03
 Linear search not attempted -- first point.
 Iteration  1 RMS(Cart)=  0.01474651 RMS(Int)=  0.00009749
 Iteration  2 RMS(Cart)=  0.00010103 RMS(Int)=  0.00000001
 Iteration  3 RMS(Cart)=  0.00000001 RMS(Int)=  0.00000000
 ITry= 1 IFail=0 DXMaxC= 2.11D-02 DCOld= 1.00D+10 DXMaxT= 3.00D-01 DXLimC= 3.00D+00 Rises=F
 ClnCor:  largest displacement from symmetrization is 3.63D-11 for atom     1.
 Variable       Old X    -DE/DX   Delta X   Delta X   Delta X     New X
                                 (Linear)    (Quad)   (Total)
    R1        2.29206  -0.01046   0.00000  -0.01060  -0.01060   2.28146
    R2        2.07901   0.01125   0.00000   0.03333   0.03333   2.11234
    R3        2.07901   0.01125   0.00000   0.03333   0.03333   2.11234
    A1        2.12436   0.00104   0.00000   0.00648   0.00648   2.13084
    A2        2.12436   0.00104   0.00000   0.00648   0.00648   2.13084
    A3        2.03447  -0.00209   0.00000  -0.01296  -0.01296   2.02151
    D1        3.14159   0.00000   0.00000   0.00000   0.00000   3.14159
         Item               Value     Threshold  Converged?
 Maximum Force            0.011252     0.000450     NO 
 RMS     Force            0.007262     0.000300     NO 
 Maximum Displacement     0.021122     0.001800     NO 
 RMS     Displacement     0.014721     0.001200     NO 
 Predicted change in Energy=-4.519491D-04
 Lowest energy point so far.  Saving SCF results.
 GradGradGradGradGradGradGradGradGradGradGradGradGradGradGradGradGradGrad

 Leave Link  103 at Tue May  9 14:08:33 2017, MaxMem=   131072000 cpu:         0.0
 (Enter /Users/kyagi/Work/pgm/gaussian/g09/l202.exe)
                          Input orientation:                          
 ---------------------------------------------------------------------
 Center     Atomic      Atomic             Coordinates (Angstroms)
 Number     Number       Type             X           Y           Z
 ---------------------------------------------------------------------
      1          6           0        0.000000    0.000000   -0.523490
      2          8           0        0.000000    0.000000    0.683807
      3          1           0       -0.947038    0.000000   -1.117291
      4          1           0        0.947038    0.000000   -1.117291
 ---------------------------------------------------------------------
                    Distance matrix (angstroms):
                    1          2          3          4
     1  C    0.000000
     2  O    1.207296   0.000000
     3  H    1.117802   2.034904   0.000000
     4  H    1.117802   2.034904   1.894076   0.000000
 Stoichiometry    CH2O
 Framework group  C2V[C2(CO),SGV(H2)]
 Deg. of freedom     3
 Full point group                 C2V     NOp   4
 RotChk:  IX=0 Diff= 1.28D-15
 Largest Abelian subgroup         C2V     NOp   4
 Largest concise Abelian subgroup C2      NOp   2
                         Standard orientation:                         
 ---------------------------------------------------------------------
 Center     Atomic      Atomic             Coordinates (Angstroms)
 Number     Number       Type             X           Y           Z
 ---------------------------------------------------------------------
      1          6           0        0.000000    0.000000   -0.529423
      2          8           0        0.000000    0.000000    0.677873
      3          1           0        0.000000    0.947038   -1.123224
      4          1           0        0.000000   -0.947038   -1.123224
 ---------------------------------------------------------------------
 Rotational constants (GHZ):    279.5550347     38.6041641     33.9200893
 Leave Link  202 at Tue May  9 14:08:33 2017, MaxMem=   131072000 cpu:         0.0
 (Enter /Users/kyagi/Work/pgm/gaussian/g09/l301.exe)
 Standard basis: CC-pVDZ (5D, 7F)
 Ernie: Thresh=  0.10000D-02 Tol=  0.10000D-05 Strict=F.
 Ernie:  4 primitive shells out of 54 were deleted.
 There are    20 symmetry adapted cartesian basis functions of A1  symmetry.
 There are     3 symmetry adapted cartesian basis functions of A2  symmetry.
 There are     7 symmetry adapted cartesian basis functions of B1  symmetry.
 There are    10 symmetry adapted cartesian basis functions of B2  symmetry.
 There are    18 symmetry adapted basis functions of A1  symmetry.
 There are     3 symmetry adapted basis functions of A2  symmetry.
 There are     7 symmetry adapted basis functions of B1  symmetry.
 There are    10 symmetry adapted basis functions of B2  symmetry.
    38 basis functions,    80 primitive gaussians,    40 cartesian basis functions
     8 alpha electrons        8 beta electrons
       nuclear repulsion energy        31.1602599174 Hartrees.
 IExCor=  402 DFT=T Ex+Corr=B3LYP ExCW=0 ScaHFX=  0.200000
 ScaDFX=  0.800000  0.720000  1.000000  0.810000 ScalE2=  1.000000  1.000000
 IRadAn=      0 IRanWt=     -1 IRanGd=            0 ICorTp=0 IEmpDi=  4
 NAtoms=    4 NActive=    4 NUniq=    3 SFac= 1.78D+00 NAtFMM=   60 NAOKFM=F Big=F
 Integral buffers will be    131072 words long.
 Raffenetti 2 integral format.
 Two-electron integral symmetry is turned on.
 Leave Link  301 at Tue May  9 14:08:33 2017, MaxMem=   131072000 cpu:         0.0
 (Enter /Users/kyagi/Work/pgm/gaussian/g09/l302.exe)
 NPDir=0 NMtPBC=     1 NCelOv=     1 NCel=       1 NClECP=     1 NCelD=      1
         NCelK=      1 NCelE2=     1 NClLst=     1 CellRange=     0.0.
 One-electron integrals computed using PRISM.
 One-electron integral symmetry used in STVInt
 NBasis=    38 RedAO= T EigKep=  3.62D-02  NBF=    18     3     7    10
 NBsUse=    38 1.00D-06 EigRej= -1.00D+00 NBFU=    18     3     7    10
 Precomputing XC quadrature grid using
 IXCGrd= 4 IRadAn=           0 IRanWt=          -1 IRanGd=           0 AccXCQ= 0.00D+00.
 Generated NRdTot=       0 NPtTot=           0 NUsed=           0 NTot=          32
 NSgBfM=    40    40    40    40    40 MxSgAt=     4 MxSgA2=     4.
 Leave Link  302 at Tue May  9 14:08:34 2017, MaxMem=   131072000 cpu:         0.1
 (Enter /Users/kyagi/Work/pgm/gaussian/g09/l303.exe)
 DipDrv:  MaxL=1.
 Leave Link  303 at Tue May  9 14:08:34 2017, MaxMem=   131072000 cpu:         0.0
 (Enter /Users/kyagi/Work/pgm/gaussian/g09/l401.exe)
 Initial guess from the checkpoint file:  "h2co-b3lyp-dz.chk"
 B after Tr=     0.000000    0.000000    0.000000
         Rot=    1.000000    0.000000    0.000000    0.000000 Ang=   0.00 deg.
 Guess basis will be translated and rotated to current coordinates.
 JPrj=2 DoOrth=T DoCkMO=T.
 Initial guess orbital symmetries:
       Occupied  (A1) (A1) (A1) (A1) (B2) (A1) (B1) (B2)
       Virtual   (A1) (A1) (A1) (A1) (A1) (A1) (A1) (A1) (A1) (A1)
                 (A1) (A1) (A1) (A2) (A2) (A2) (B1) (B1) (B1) (B1)
                 (B1) (B1) (B2) (B2) (B2) (B2) (B2) (B2) (B2) (B2)
 The electronic state of the initial guess is 1-A1.
 Generating alternative initial guess.
 ExpMin= 1.22D-01 ExpMax= 1.17D+04 ExpMxC= 4.01D+02 IAcc=1 IRadAn=         1 AccDes= 0.00D+00
 Harris functional with IExCor=  402 and IRadAn=       1 diagonalized for initial guess.
 HarFok:  IExCor=  402 AccDes= 0.00D+00 IRadAn=         1 IDoV= 1 UseB2=F ITyADJ=14
 ICtDFT=  3500011 ScaDFX=  1.000000  1.000000  1.000000  1.000000
 FoFCou: FMM=F IPFlag=           0 FMFlag=      100000 FMFlg1=           0
         NFxFlg=           0 DoJE=T BraDBF=F KetDBF=T FulRan=T
         wScrn=  0.000000 ICntrl=     500 IOpCl=  0 I1Cent=   200000004 NGrid=           0
         NMat0=    1 NMatS0=      1 NMatT0=    0 NMatD0=    1 NMtDS0=    0 NMtDT0=    0
 Petite list used in FoFCou.
 Harris En= -114.513732103170    
 Leave Link  401 at Tue May  9 14:08:34 2017, MaxMem=   131072000 cpu:         0.1
 (Enter /Users/kyagi/Work/pgm/gaussian/g09/l502.exe)
 Closed shell SCF:
 Using DIIS extrapolation, IDIIS=  1040.
 Integral symmetry usage will be decided dynamically.
 Keep R1 ints in memory in symmetry-blocked form, NReq=1162159.
 IVT=       23998 IEndB=       23998 NGot=   131072000 MDV=   130971124
 LenX=   130971124 LenY=   130969083
 Requested convergence on RMS density matrix=1.00D-08 within 128 cycles.
 Requested convergence on MAX density matrix=1.00D-06.
 Requested convergence on             energy=1.00D-06.
 No special actions if energy rises.
 FoFCou: FMM=F IPFlag=           0 FMFlag=           0 FMFlg1=           0
         NFxFlg=           0 DoJE=F BraDBF=F KetDBF=F FulRan=T
         wScrn=  0.000000 ICntrl=     600 IOpCl=  0 I1Cent=           0 NGrid=           0
         NMat0=    1 NMatS0=    741 NMatT0=    0 NMatD0=    1 NMtDS0=    0 NMtDT0=    0
 Petite list used in FoFCou.
 Integral accuracy reduced to 1.0D-05 until final iterations.

 Cycle   1  Pass 0  IDiag  1:
 E= -114.507478174919    
 DIIS: error= 1.39D-03 at cycle   1 NSaved=   1.
 NSaved= 1 IEnMin= 1 EnMin= -114.507478174919     IErMin= 1 ErrMin= 1.39D-03
 ErrMax= 1.39D-03  0.00D+00 EMaxC= 1.00D-01 BMatC= 8.95D-05 BMatP= 8.95D-05
 IDIUse=3 WtCom= 9.86D-01 WtEn= 1.39D-02
 Coeff-Com:  0.100D+01
 Coeff-En:   0.100D+01
 Coeff:      0.100D+01
 Gap=     0.991 Goal=   None    Shift=    0.000
 GapD=    0.991 DampG=2.000 DampE=1.000 DampFc=2.0000 IDamp=-1.
 RMSDP=4.26D-04 MaxDP=3.43D-03              OVMax= 5.72D-03

 Cycle   2  Pass 0  IDiag  1:
 E= -114.507574147537     Delta-E=       -0.000095972618 Rises=F Damp=F
 DIIS: error= 1.18D-03 at cycle   2 NSaved=   2.
 NSaved= 2 IEnMin= 2 EnMin= -114.507574147537     IErMin= 2 ErrMin= 1.18D-03
 ErrMax= 1.18D-03  0.00D+00 EMaxC= 1.00D-01 BMatC= 5.40D-05 BMatP= 8.95D-05
 IDIUse=3 WtCom= 9.88D-01 WtEn= 1.18D-02
 Coeff-Com:  0.407D+00 0.593D+00
 Coeff-En:   0.000D+00 0.100D+01
 Coeff:      0.402D+00 0.598D+00
 Gap=     0.221 Goal=   None    Shift=    0.000
 RMSDP=2.19D-04 MaxDP=3.22D-03 DE=-9.60D-05 OVMax= 5.70D-03

 Cycle   3  Pass 0  IDiag  1:
 E= -114.507579960429     Delta-E=       -0.000005812892 Rises=F Damp=F
 DIIS: error= 1.10D-03 at cycle   3 NSaved=   3.
 NSaved= 3 IEnMin= 3 EnMin= -114.507579960429     IErMin= 3 ErrMin= 1.10D-03
 ErrMax= 1.10D-03  0.00D+00 EMaxC= 1.00D-01 BMatC= 4.65D-05 BMatP= 5.40D-05
 IDIUse=3 WtCom= 9.89D-01 WtEn= 1.10D-02
 Coeff-Com:  0.544D-02 0.480D+00 0.515D+00
 Coeff-En:   0.000D+00 0.473D+00 0.527D+00
 Coeff:      0.538D-02 0.480D+00 0.515D+00
 Gap=     0.222 Goal=   None    Shift=    0.000
 RMSDP=1.16D-04 MaxDP=1.74D-03 DE=-5.81D-06 OVMax= 3.01D-03

 Cycle   4  Pass 0  IDiag  1:
 E= -114.507616450822     Delta-E=       -0.000036490393 Rises=F Damp=F
 DIIS: error= 4.99D-05 at cycle   4 NSaved=   4.
 NSaved= 4 IEnMin= 4 EnMin= -114.507616450822     IErMin= 4 ErrMin= 4.99D-05
 ErrMax= 4.99D-05  0.00D+00 EMaxC= 1.00D-01 BMatC= 9.16D-08 BMatP= 4.65D-05
 IDIUse=1 WtCom= 1.00D+00 WtEn= 0.00D+00
 Coeff-Com: -0.599D-02 0.779D-01 0.110D+00 0.819D+00
 Coeff:     -0.599D-02 0.779D-01 0.110D+00 0.819D+00
 Gap=     0.222 Goal=   None    Shift=    0.000
 RMSDP=9.38D-06 MaxDP=7.85D-05 DE=-3.65D-05 OVMax= 1.38D-04

 Initial convergence to 1.0D-05 achieved.  Increase integral accuracy.
 Cycle   5  Pass 1  IDiag  1:
 E= -114.507607810037     Delta-E=        0.000008640784 Rises=F Damp=F
 DIIS: error= 2.01D-05 at cycle   1 NSaved=   1.
 NSaved= 1 IEnMin= 1 EnMin= -114.507607810037     IErMin= 1 ErrMin= 2.01D-05
 ErrMax= 2.01D-05  0.00D+00 EMaxC= 1.00D-01 BMatC= 1.08D-08 BMatP= 1.08D-08
 IDIUse=1 WtCom= 1.00D+00 WtEn= 0.00D+00
 Coeff-Com:  0.100D+01
 Coeff:      0.100D+01
 Gap=     0.222 Goal=   None    Shift=    0.000
 RMSDP=9.38D-06 MaxDP=7.85D-05 DE= 8.64D-06 OVMax= 8.58D-05

 Cycle   6  Pass 1  IDiag  1:
 E= -114.507607803263     Delta-E=        0.000000006775 Rises=F Damp=F
 DIIS: error= 2.49D-05 at cycle   2 NSaved=   2.
 NSaved= 2 IEnMin= 1 EnMin= -114.507607810037     IErMin= 1 ErrMin= 2.01D-05
 ErrMax= 2.49D-05  0.00D+00 EMaxC= 1.00D-01 BMatC= 2.08D-08 BMatP= 1.08D-08
 IDIUse=1 WtCom= 1.00D+00 WtEn= 0.00D+00
 Coeff-Com:  0.587D+00 0.413D+00
 Coeff:      0.587D+00 0.413D+00
 Gap=     0.222 Goal=   None    Shift=    0.000
 RMSDP=2.76D-06 MaxDP=3.92D-05 DE= 6.77D-09 OVMax= 7.56D-05

 Cycle   7  Pass 1  IDiag  1:
 E= -114.507607819819     Delta-E=       -0.000000016557 Rises=F Damp=F
 DIIS: error= 8.10D-06 at cycle   3 NSaved=   3.
 NSaved= 3 IEnMin= 3 EnMin= -114.507607819819     IErMin= 3 ErrMin= 8.10D-06
 ErrMax= 8.10D-06  0.00D+00 EMaxC= 1.00D-01 BMatC= 2.31D-09 BMatP= 1.08D-08
 IDIUse=1 WtCom= 1.00D+00 WtEn= 0.00D+00
 Coeff-Com:  0.288D+00 0.282D+00 0.430D+00
 Coeff:      0.288D+00 0.282D+00 0.430D+00
 Gap=     0.222 Goal=   None    Shift=    0.000
 RMSDP=9.87D-07 MaxDP=1.11D-05 DE=-1.66D-08 OVMax= 1.71D-05

 Cycle   8  Pass 1  IDiag  1:
 E= -114.507607821606     Delta-E=       -0.000000001787 Rises=F Damp=F
 DIIS: error= 7.68D-07 at cycle   4 NSaved=   4.
 NSaved= 4 IEnMin= 4 EnMin= -114.507607821606     IErMin= 4 ErrMin= 7.68D-07
 ErrMax= 7.68D-07  0.00D+00 EMaxC= 1.00D-01 BMatC= 1.82D-11 BMatP= 2.31D-09
 IDIUse=1 WtCom= 1.00D+00 WtEn= 0.00D+00
 Coeff-Com: -0.166D-01 0.213D-01 0.519D-01 0.943D+00
 Coeff:     -0.166D-01 0.213D-01 0.519D-01 0.943D+00
 Gap=     0.222 Goal=   None    Shift=    0.000
 RMSDP=9.11D-08 MaxDP=1.10D-06 DE=-1.79D-09 OVMax= 1.48D-06

 Cycle   9  Pass 1  IDiag  1:
 E= -114.507607821624     Delta-E=       -0.000000000018 Rises=F Damp=F
 DIIS: error= 7.32D-08 at cycle   5 NSaved=   5.
 NSaved= 5 IEnMin= 5 EnMin= -114.507607821624     IErMin= 5 ErrMin= 7.32D-08
 ErrMax= 7.32D-08  0.00D+00 EMaxC= 1.00D-01 BMatC= 1.60D-13 BMatP= 1.82D-11
 IDIUse=1 WtCom= 1.00D+00 WtEn= 0.00D+00
 Coeff-Com: -0.669D-02 0.157D-02 0.934D-02 0.175D+00 0.821D+00
 Coeff:     -0.669D-02 0.157D-02 0.934D-02 0.175D+00 0.821D+00
 Gap=     0.222 Goal=   None    Shift=    0.000
 RMSDP=8.13D-09 MaxDP=7.10D-08 DE=-1.83D-11 OVMax= 1.45D-07

 SCF Done:  E(RB3LYP) =  -114.507607822     A.U. after    9 cycles
            NFock=  9  Conv=0.81D-08     -V/T= 2.0064
 KE= 1.137784982177D+02 PE=-3.310604357509D+02 EE= 7.161406979418D+01
 Leave Link  502 at Tue May  9 14:08:34 2017, MaxMem=   131072000 cpu:         0.5
 (Enter /Users/kyagi/Work/pgm/gaussian/g09/l701.exe)
 Compute integral first derivatives.
 ... and contract with generalized density number  0.
 Leave Link  701 at Tue May  9 14:08:34 2017, MaxMem=   131072000 cpu:         0.1
 (Enter /Users/kyagi/Work/pgm/gaussian/g09/l702.exe)
 L702 exits ... SP integral derivatives will be done elsewhere.
 Leave Link  702 at Tue May  9 14:08:34 2017, MaxMem=   131072000 cpu:         0.0
 (Enter /Users/kyagi/Work/pgm/gaussian/g09/l703.exe)
 Compute integral first derivatives, UseDBF=F ICtDFT=           0.
 Integral derivatives from FoFJK, PRISM(SPDF).
 Calling FoFJK, ICntrl=      2127 FMM=F ISym2X=1 I1Cent= 0 IOpClX= 0 NMat=1 NMatS=1 NMatT=0.
 FoFJK:  IHMeth= 1 ICntrl=    2127 DoSepK=F KAlg= 0 I1Cent=   0 FoldK=F
 IRaf=         0 NMat=   1 IRICut=       1 DoRegI=T DoRafI=F ISym2E= 1.
 FoFCou: FMM=F IPFlag=           0 FMFlag=      100000 FMFlg1=         800
         NFxFlg=           0 DoJE=F BraDBF=F KetDBF=F FulRan=T
         wScrn=  0.000000 ICntrl=    2127 IOpCl=  0 I1Cent=           0 NGrid=           0
         NMat0=    1 NMatS0=      1 NMatT0=    0 NMatD0=    1 NMtDS0=    0 NMtDT0=    0
 Petite list used in FoFCou.
 Leave Link  703 at Tue May  9 14:08:35 2017, MaxMem=   131072000 cpu:         0.2
 (Enter /Users/kyagi/Work/pgm/gaussian/g09/l716.exe)
 Dipole        = 6.64482868D-18 0.00000000D+00-8.20668352D-01
 ***** Axes restored to original set *****
 -------------------------------------------------------------------
 Center     Atomic                   Forces (Hartrees/Bohr)
 Number     Number              X              Y              Z
 -------------------------------------------------------------------
      1        6           0.000000000    0.000000000    0.007243102
      2        8           0.000000000    0.000000000   -0.004480953
      3        1          -0.000327173    0.000000000   -0.001381075
      4        1           0.000327173    0.000000000   -0.001381075
 -------------------------------------------------------------------
 Cartesian Forces:  Max     0.007243102 RMS     0.002526036
 Leave Link  716 at Tue May  9 14:08:35 2017, MaxMem=   131072000 cpu:         0.0
 (Enter /Users/kyagi/Work/pgm/gaussian/g09/l103.exe)

 GradGradGradGradGradGradGradGradGradGradGradGradGradGradGradGradGradGrad
 Berny optimization.
 Using GEDIIS/GDIIS optimizer.
 FormGI is forming the generalized inverse of G from B-inverse, IUseBI=4.
 Internal  Forces:  Max     0.004480953 RMS     0.001892662
 Search for a local minimum.
 Step number   2 out of a maximum of   20
 All quantities printed in internal units (Hartrees-Bohrs-Radians)
 RMS Force = .18927D-02 SwitMx=.10000D-02 MixMth= 1
 Mixed Optimization -- RFO/linear search
 Update second derivatives using D2CorX and points    1    2
 DE= -5.16D-04 DEPred=-4.52D-04 R= 1.14D+00
 TightC=F SS=  1.41D+00  RLast= 5.09D-02 DXNew= 5.0454D-01 1.5258D-01
 Trust test= 1.14D+00 RLast= 5.09D-02 DXMaxT set to 3.00D-01
 The second derivative matrix:
                          R1        R2        R3        A1        A2
           R1           0.91158
           R2           0.04978   0.33471
           R3           0.04978  -0.00193   0.33471
           A1           0.00936  -0.00834  -0.00834   0.15896
           A2           0.00936  -0.00834  -0.00834  -0.00104   0.15896
           A3          -0.01873   0.01668   0.01668   0.00208   0.00208
           D1           0.00000   0.00000   0.00000   0.00000   0.00000
                          A3        D1
           A3           0.15583
           D1           0.00000   0.00230
 ITU=  1  0
 Use linear search instead of GDIIS.
     Eigenvalues ---    0.00230   0.14768   0.16000   0.32991   0.33664
     Eigenvalues ---    0.92051
 RFO step:  Lambda=-3.22647602D-05 EMin= 2.30000000D-03
 Quartic linear search produced a step of  0.19832.
 Iteration  1 RMS(Cart)=  0.00416123 RMS(Int)=  0.00002168
 Iteration  2 RMS(Cart)=  0.00002328 RMS(Int)=  0.00000000
 Iteration  3 RMS(Cart)=  0.00000000 RMS(Int)=  0.00000000
 ITry= 1 IFail=0 DXMaxC= 7.83D-03 DCOld= 1.00D+10 DXMaxT= 3.00D-01 DXLimC= 3.00D+00 Rises=F
 ClnCor:  largest displacement from symmetrization is 6.42D-11 for atom     1.
 Variable       Old X    -DE/DX   Delta X   Delta X   Delta X     New X
                                 (Linear)    (Quad)   (Total)
    R1        2.28146  -0.00448  -0.00210  -0.00375  -0.00585   2.27561
    R2        2.11234   0.00101   0.00661  -0.00153   0.00508   2.11742
    R3        2.11234   0.00101   0.00661  -0.00153   0.00508   2.11742
    A1        2.13084   0.00070   0.00129   0.00432   0.00561   2.13645
    A2        2.13084   0.00070   0.00129   0.00432   0.00561   2.13645
    A3        2.02151  -0.00140  -0.00257  -0.00864  -0.01121   2.01029
    D1        3.14159   0.00000   0.00000   0.00000   0.00000   3.14159
         Item               Value     Threshold  Converged?
 Maximum Force            0.004481     0.000450     NO 
 RMS     Force            0.001893     0.000300     NO 
 Maximum Displacement     0.007834     0.001800     NO 
 RMS     Displacement     0.004169     0.001200     NO 
 Predicted change in Energy=-2.904782D-05
 Lowest energy point so far.  Saving SCF results.
 GradGradGradGradGradGradGradGradGradGradGradGradGradGradGradGradGradGrad

 Leave Link  103 at Tue May  9 14:08:35 2017, MaxMem=   131072000 cpu:         0.0
 (Enter /Users/kyagi/Work/pgm/gaussian/g09/l202.exe)
                          Input orientation:                          
 ---------------------------------------------------------------------
 Center     Atomic      Atomic             Coordinates (Angstroms)
 Number     Number       Type             X           Y           Z
 ---------------------------------------------------------------------
      1          6           0        0.000000    0.000000   -0.519344
      2          8           0        0.000000    0.000000    0.684854
      3          1           0       -0.945964    0.000000   -1.119888
      4          1           0        0.945964    0.000000   -1.119888
 ---------------------------------------------------------------------
                    Distance matrix (angstroms):
                    1          2          3          4
     1  C    0.000000
     2  O    1.204198   0.000000
     3  H    1.120492   2.037632   0.000000
     4  H    1.120492   2.037632   1.891929   0.000000
 Stoichiometry    CH2O
 Framework group  C2V[C2(CO),SGV(H2)]
 Deg. of freedom     3
 Full point group                 C2V     NOp   4
 RotChk:  IX=0 Diff= 6.38D-16
 Largest Abelian subgroup         C2V     NOp   4
 Largest concise Abelian subgroup C2      NOp   2
                         Standard orientation:                         
 ---------------------------------------------------------------------
 Center     Atomic      Atomic             Coordinates (Angstroms)
 Number     Number       Type             X           Y           Z
 ---------------------------------------------------------------------
      1          6           0        0.000000    0.000000   -0.527031
      2          8           0        0.000000    0.000000    0.677167
      3          1           0        0.000000    0.945964   -1.127575
      4          1           0        0.000000   -0.945964   -1.127575
 ---------------------------------------------------------------------
 Rotational constants (GHZ):    280.1898851     38.6844540     33.9914236
 Leave Link  202 at Tue May  9 14:08:35 2017, MaxMem=   131072000 cpu:         0.0
 (Enter /Users/kyagi/Work/pgm/gaussian/g09/l301.exe)
 Standard basis: CC-pVDZ (5D, 7F)
 Ernie: Thresh=  0.10000D-02 Tol=  0.10000D-05 Strict=F.
 Ernie:  4 primitive shells out of 54 were deleted.
 There are    20 symmetry adapted cartesian basis functions of A1  symmetry.
 There are     3 symmetry adapted cartesian basis functions of A2  symmetry.
 There are     7 symmetry adapted cartesian basis functions of B1  symmetry.
 There are    10 symmetry adapted cartesian basis functions of B2  symmetry.
 There are    18 symmetry adapted basis functions of A1  symmetry.
 There are     3 symmetry adapted basis functions of A2  symmetry.
 There are     7 symmetry adapted basis functions of B1  symmetry.
 There are    10 symmetry adapted basis functions of B2  symmetry.
    38 basis functions,    80 primitive gaussians,    40 cartesian basis functions
     8 alpha electrons        8 beta electrons
       nuclear repulsion energy        31.1954938975 Hartrees.
 IExCor=  402 DFT=T Ex+Corr=B3LYP ExCW=0 ScaHFX=  0.200000
 ScaDFX=  0.800000  0.720000  1.000000  0.810000 ScalE2=  1.000000  1.000000
 IRadAn=      0 IRanWt=     -1 IRanGd=            0 ICorTp=0 IEmpDi=  4
 NAtoms=    4 NActive=    4 NUniq=    3 SFac= 1.78D+00 NAtFMM=   60 NAOKFM=F Big=F
 Integral buffers will be    131072 words long.
 Raffenetti 2 integral format.
 Two-electron integral symmetry is turned on.
 Leave Link  301 at Tue May  9 14:08:35 2017, MaxMem=   131072000 cpu:         0.0
 (Enter /Users/kyagi/Work/pgm/gaussian/g09/l302.exe)
 NPDir=0 NMtPBC=     1 NCelOv=     1 NCel=       1 NClECP=     1 NCelD=      1
         NCelK=      1 NCelE2=     1 NClLst=     1 CellRange=     0.0.
 One-electron integrals computed using PRISM.
 One-electron integral symmetry used in STVInt
 NBasis=    38 RedAO= T EigKep=  3.63D-02  NBF=    18     3     7    10
 NBsUse=    38 1.00D-06 EigRej= -1.00D+00 NBFU=    18     3     7    10
 Precomputing XC quadrature grid using
 IXCGrd= 4 IRadAn=           0 IRanWt=          -1 IRanGd=           0 AccXCQ= 0.00D+00.
 Generated NRdTot=       0 NPtTot=           0 NUsed=           0 NTot=          32
 NSgBfM=    40    40    40    40    40 MxSgAt=     4 MxSgA2=     4.
 Leave Link  302 at Tue May  9 14:08:35 2017, MaxMem=   131072000 cpu:         0.1
 (Enter /Users/kyagi/Work/pgm/gaussian/g09/l303.exe)
 DipDrv:  MaxL=1.
 Leave Link  303 at Tue May  9 14:08:35 2017, MaxMem=   131072000 cpu:         0.0
 (Enter /Users/kyagi/Work/pgm/gaussian/g09/l401.exe)
 Initial guess from the checkpoint file:  "h2co-b3lyp-dz.chk"
 B after Tr=     0.000000    0.000000    0.000000
         Rot=    1.000000    0.000000    0.000000    0.000000 Ang=   0.00 deg.
 Guess basis will be translated and rotated to current coordinates.
 JPrj=2 DoOrth=T DoCkMO=T.
 Initial guess orbital symmetries:
       Occupied  (A1) (A1) (A1) (A1) (B2) (A1) (B1) (B2)
       Virtual   (A1) (A1) (A1) (A1) (A1) (A1) (A1) (A1) (A1) (A1)
                 (A1) (A1) (A1) (A2) (A2) (A2) (B1) (B1) (B1) (B1)
                 (B1) (B1) (B2) (B2) (B2) (B2) (B2) (B2) (B2) (B2)
 The electronic state of the initial guess is 1-A1.
 Leave Link  401 at Tue May  9 14:08:35 2017, MaxMem=   131072000 cpu:         0.1
 (Enter /Users/kyagi/Work/pgm/gaussian/g09/l502.exe)
 Closed shell SCF:
 Using DIIS extrapolation, IDIIS=  1040.
 Integral symmetry usage will be decided dynamically.
 Keep R1 ints in memory in symmetry-blocked form, NReq=1162159.
 IVT=       23998 IEndB=       23998 NGot=   131072000 MDV=   130971124
 LenX=   130971124 LenY=   130969083
 Requested convergence on RMS density matrix=1.00D-08 within 128 cycles.
 Requested convergence on MAX density matrix=1.00D-06.
 Requested convergence on             energy=1.00D-06.
 No special actions if energy rises.
 FoFCou: FMM=F IPFlag=           0 FMFlag=           0 FMFlg1=           0
         NFxFlg=           0 DoJE=F BraDBF=F KetDBF=F FulRan=T
         wScrn=  0.000000 ICntrl=     600 IOpCl=  0 I1Cent=           0 NGrid=           0
         NMat0=    1 NMatS0=    741 NMatT0=    0 NMatD0=    1 NMtDS0=    0 NMtDT0=    0
 Petite list used in FoFCou.

 Cycle   1  Pass 1  IDiag  1:
 E= -114.507625632797    
 DIIS: error= 4.18D-04 at cycle   1 NSaved=   1.
 NSaved= 1 IEnMin= 1 EnMin= -114.507625632797     IErMin= 1 ErrMin= 4.18D-04
 ErrMax= 4.18D-04  0.00D+00 EMaxC= 1.00D-01 BMatC= 9.49D-06 BMatP= 9.49D-06
 IDIUse=3 WtCom= 9.96D-01 WtEn= 4.18D-03
 Coeff-Com:  0.100D+01
 Coeff-En:   0.100D+01
 Coeff:      0.100D+01
 Gap=     0.995 Goal=   None    Shift=    0.000
 RMSDP=1.27D-04 MaxDP=1.17D-03              OVMax= 2.01D-03

 Cycle   2  Pass 1  IDiag  1:
 E= -114.507635768091     Delta-E=       -0.000010135294 Rises=F Damp=F
 DIIS: error= 3.93D-04 at cycle   2 NSaved=   2.
 NSaved= 2 IEnMin= 2 EnMin= -114.507635768091     IErMin= 2 ErrMin= 3.93D-04
 ErrMax= 3.93D-04  0.00D+00 EMaxC= 1.00D-01 BMatC= 5.95D-06 BMatP= 9.49D-06
 IDIUse=3 WtCom= 9.96D-01 WtEn= 3.93D-03
 Coeff-Com:  0.418D+00 0.582D+00
 Coeff-En:   0.000D+00 0.100D+01
 Coeff:      0.416D+00 0.584D+00
 Gap=     0.223 Goal=   None    Shift=    0.000
 RMSDP=7.11D-05 MaxDP=1.03D-03 DE=-1.01D-05 OVMax= 1.70D-03

 Cycle   3  Pass 1  IDiag  1:
 E= -114.507636843497     Delta-E=       -0.000001075406 Rises=F Damp=F
 DIIS: error= 3.30D-04 at cycle   3 NSaved=   3.
 NSaved= 3 IEnMin= 3 EnMin= -114.507636843497     IErMin= 3 ErrMin= 3.30D-04
 ErrMax= 3.30D-04  0.00D+00 EMaxC= 1.00D-01 BMatC= 4.15D-06 BMatP= 5.95D-06
 IDIUse=3 WtCom= 9.97D-01 WtEn= 3.30D-03
 Coeff-Com:  0.170D-01 0.451D+00 0.532D+00
 Coeff-En:   0.000D+00 0.447D+00 0.553D+00
 Coeff:      0.169D-01 0.451D+00 0.532D+00
 Gap=     0.223 Goal=   None    Shift=    0.000
 RMSDP=3.65D-05 MaxDP=5.45D-04 DE=-1.08D-06 OVMax= 9.72D-04

 Cycle   4  Pass 1  IDiag  1:
 E= -114.507640103689     Delta-E=       -0.000003260192 Rises=F Damp=F
 DIIS: error= 4.57D-05 at cycle   4 NSaved=   4.
 NSaved= 4 IEnMin= 4 EnMin= -114.507640103689     IErMin= 4 ErrMin= 4.57D-05
 ErrMax= 4.57D-05  0.00D+00 EMaxC= 1.00D-01 BMatC= 4.84D-08 BMatP= 4.15D-06
 IDIUse=1 WtCom= 1.00D+00 WtEn= 0.00D+00
 Coeff-Com: -0.152D-01 0.107D+00 0.192D+00 0.716D+00
 Coeff:     -0.152D-01 0.107D+00 0.192D+00 0.716D+00
 Gap=     0.223 Goal=   None    Shift=    0.000
 RMSDP=3.99D-06 MaxDP=5.11D-05 DE=-3.26D-06 OVMax= 7.39D-05

 Cycle   5  Pass 1  IDiag  1:
 E= -114.507640142453     Delta-E=       -0.000000038764 Rises=F Damp=F
 DIIS: error= 6.77D-06 at cycle   5 NSaved=   5.
 NSaved= 5 IEnMin= 5 EnMin= -114.507640142453     IErMin= 5 ErrMin= 6.77D-06
 ErrMax= 6.77D-06  0.00D+00 EMaxC= 1.00D-01 BMatC= 2.34D-09 BMatP= 4.84D-08
 IDIUse=1 WtCom= 1.00D+00 WtEn= 0.00D+00
 Coeff-Com: -0.435D-02 0.172D-01 0.520D-01 0.271D+00 0.664D+00
 Coeff:     -0.435D-02 0.172D-01 0.520D-01 0.271D+00 0.664D+00
 Gap=     0.223 Goal=   None    Shift=    0.000
 RMSDP=1.60D-06 MaxDP=1.50D-05 DE=-3.88D-08 OVMax= 2.11D-05

 Cycle   6  Pass 1  IDiag  1:
 E= -114.507640144832     Delta-E=       -0.000000002379 Rises=F Damp=F
 DIIS: error= 8.80D-07 at cycle   6 NSaved=   6.
 NSaved= 6 IEnMin= 6 EnMin= -114.507640144832     IErMin= 6 ErrMin= 8.80D-07
 ErrMax= 8.80D-07  0.00D+00 EMaxC= 1.00D-01 BMatC= 5.12D-11 BMatP= 2.34D-09
 IDIUse=1 WtCom= 1.00D+00 WtEn= 0.00D+00
 Coeff-Com:  0.497D-05-0.355D-02-0.721D-03-0.243D-02 0.893D-01 0.917D+00
 Coeff:      0.497D-05-0.355D-02-0.721D-03-0.243D-02 0.893D-01 0.917D+00
 Gap=     0.223 Goal=   None    Shift=    0.000
 RMSDP=1.64D-07 MaxDP=1.63D-06 DE=-2.38D-09 OVMax= 1.86D-06

 Cycle   7  Pass 1  IDiag  1:
 E= -114.507640144877     Delta-E=       -0.000000000045 Rises=F Damp=F
 DIIS: error= 7.47D-08 at cycle   7 NSaved=   7.
 NSaved= 7 IEnMin= 7 EnMin= -114.507640144877     IErMin= 7 ErrMin= 7.47D-08
 ErrMax= 7.47D-08  0.00D+00 EMaxC= 1.00D-01 BMatC= 1.20D-13 BMatP= 5.12D-11
 IDIUse=1 WtCom= 1.00D+00 WtEn= 0.00D+00
 Coeff-Com:  0.365D-04-0.211D-03-0.524D-03-0.266D-02 0.409D-03 0.563D-02
 Coeff-Com:  0.997D+00
 Coeff:      0.365D-04-0.211D-03-0.524D-03-0.266D-02 0.409D-03 0.563D-02
 Coeff:      0.997D+00
 Gap=     0.223 Goal=   None    Shift=    0.000
 RMSDP=1.23D-08 MaxDP=1.76D-07 DE=-4.50D-11 OVMax= 3.62D-07

 Cycle   8  Pass 1  IDiag  1:
 E= -114.507640144877     Delta-E=        0.000000000000 Rises=F Damp=F
 DIIS: error= 2.67D-08 at cycle   8 NSaved=   8.
 NSaved= 8 IEnMin= 8 EnMin= -114.507640144877     IErMin= 8 ErrMin= 2.67D-08
 ErrMax= 2.67D-08  0.00D+00 EMaxC= 1.00D-01 BMatC= 2.40D-14 BMatP= 1.20D-13
 IDIUse=1 WtCom= 1.00D+00 WtEn= 0.00D+00
 Coeff-Com:  0.498D-05 0.147D-04-0.233D-04-0.393D-03-0.122D-02-0.157D-01
 Coeff-Com:  0.152D+00 0.865D+00
 Coeff:      0.498D-05 0.147D-04-0.233D-04-0.393D-03-0.122D-02-0.157D-01
 Coeff:      0.152D+00 0.865D+00
 Gap=     0.223 Goal=   None    Shift=    0.000
 RMSDP=3.93D-09 MaxDP=3.54D-08 DE=-1.14D-13 OVMax= 5.42D-08

 SCF Done:  E(RB3LYP) =  -114.507640145     A.U. after    8 cycles
            NFock=  8  Conv=0.39D-08     -V/T= 2.0064
 KE= 1.137823417484D+02 PE=-3.311264056737D+02 EE= 7.164092988301D+01
 Leave Link  502 at Tue May  9 14:08:35 2017, MaxMem=   131072000 cpu:         0.5
 (Enter /Users/kyagi/Work/pgm/gaussian/g09/l701.exe)
 Compute integral first derivatives.
 ... and contract with generalized density number  0.
 Leave Link  701 at Tue May  9 14:08:36 2017, MaxMem=   131072000 cpu:         0.1
 (Enter /Users/kyagi/Work/pgm/gaussian/g09/l702.exe)
 L702 exits ... SP integral derivatives will be done elsewhere.
 Leave Link  702 at Tue May  9 14:08:36 2017, MaxMem=   131072000 cpu:         0.0
 (Enter /Users/kyagi/Work/pgm/gaussian/g09/l703.exe)
 Compute integral first derivatives, UseDBF=F ICtDFT=           0.
 Integral derivatives from FoFJK, PRISM(SPDF).
 Calling FoFJK, ICntrl=      2127 FMM=F ISym2X=1 I1Cent= 0 IOpClX= 0 NMat=1 NMatS=1 NMatT=0.
 FoFJK:  IHMeth= 1 ICntrl=    2127 DoSepK=F KAlg= 0 I1Cent=   0 FoldK=F
 IRaf=         0 NMat=   1 IRICut=       1 DoRegI=T DoRafI=F ISym2E= 1.
 FoFCou: FMM=F IPFlag=           0 FMFlag=      100000 FMFlg1=         800
         NFxFlg=           0 DoJE=F BraDBF=F KetDBF=F FulRan=T
         wScrn=  0.000000 ICntrl=    2127 IOpCl=  0 I1Cent=           0 NGrid=           0
         NMat0=    1 NMatS0=      1 NMatT0=    0 NMatD0=    1 NMtDS0=    0 NMtDT0=    0
 Petite list used in FoFCou.
 Leave Link  703 at Tue May  9 14:08:36 2017, MaxMem=   131072000 cpu:         0.2
 (Enter /Users/kyagi/Work/pgm/gaussian/g09/l716.exe)
 Dipole        = 6.79486609D-18 0.00000000D+00-8.14247369D-01
 ***** Axes restored to original set *****
 -------------------------------------------------------------------
 Center     Atomic                   Forces (Hartrees/Bohr)
 Number     Number              X              Y              Z
 -------------------------------------------------------------------
      1        6           0.000000000    0.000000000    0.000423694
      2        8           0.000000000    0.000000000   -0.000290109
      3        1           0.000253855    0.000000000   -0.000066792
      4        1          -0.000253855    0.000000000   -0.000066792
 -------------------------------------------------------------------
 Cartesian Forces:  Max     0.000423694 RMS     0.000182913
 Leave Link  716 at Tue May  9 14:08:36 2017, MaxMem=   131072000 cpu:         0.0
 (Enter /Users/kyagi/Work/pgm/gaussian/g09/l103.exe)

 GradGradGradGradGradGradGradGradGradGradGradGradGradGradGradGradGradGrad
 Berny optimization.
 Using GEDIIS/GDIIS optimizer.
 FormGI is forming the generalized inverse of G from B-inverse, IUseBI=4.
 Internal  Forces:  Max     0.000290109 RMS     0.000192205
 Search for a local minimum.
 Step number   3 out of a maximum of   20
 All quantities printed in internal units (Hartrees-Bohrs-Radians)
 RMS Force = .19220D-03 SwitMx=.10000D-02 MixMth= 2
 Mixed Optimization -- En-DIIS/RFO-DIIS
 Update second derivatives using D2CorX and points    1    2    3
 DE= -3.23D-05 DEPred=-2.90D-05 R= 1.11D+00
 TightC=F SS=  1.41D+00  RLast= 1.66D-02 DXNew= 5.0454D-01 4.9711D-02
 Trust test= 1.11D+00 RLast= 1.66D-02 DXMaxT set to 3.00D-01
 The second derivative matrix:
                          R1        R2        R3        A1        A2
           R1           0.89785
           R2           0.04177   0.34302
           R3           0.04177   0.00638   0.34302
           A1           0.01904  -0.01017  -0.01017   0.15653
           A2           0.01904  -0.01017  -0.01017  -0.00347   0.15653
           A3          -0.03809   0.02034   0.02034   0.00693   0.00693
           D1           0.00000   0.00000   0.00000   0.00000   0.00000
                          A3        D1
           A3           0.14614
           D1           0.00000   0.00230
 ITU=  1  1  0
 Use linear search instead of GDIIS.
     Eigenvalues ---    0.00230   0.12938   0.16000   0.33664   0.35055
     Eigenvalues ---    0.90652
 RFO step:  Lambda=-6.75230551D-07 EMin= 2.30000000D-03
 Quartic linear search produced a step of  0.07962.
 Iteration  1 RMS(Cart)=  0.00090850 RMS(Int)=  0.00000057
 Iteration  2 RMS(Cart)=  0.00000050 RMS(Int)=  0.00000000
 ITry= 1 IFail=0 DXMaxC= 1.37D-03 DCOld= 1.00D+10 DXMaxT= 3.00D-01 DXLimC= 3.00D+00 Rises=F
 ClnCor:  largest displacement from symmetrization is 6.40D-11 for atom     1.
 Variable       Old X    -DE/DX   Delta X   Delta X   Delta X     New X
                                 (Linear)    (Quad)   (Total)
    R1        2.27561  -0.00029  -0.00047   0.00004  -0.00042   2.27518
    R2        2.11742  -0.00018   0.00040  -0.00069  -0.00029   2.11713
    R3        2.11742  -0.00018   0.00040  -0.00069  -0.00029   2.11713
    A1        2.13645   0.00014   0.00045   0.00054   0.00099   2.13743
    A2        2.13645   0.00014   0.00045   0.00054   0.00099   2.13743
    A3        2.01029  -0.00027  -0.00089  -0.00108  -0.00198   2.00832
    D1        3.14159   0.00000   0.00000   0.00000   0.00000   3.14159
         Item               Value     Threshold  Converged?
 Maximum Force            0.000290     0.000450     YES
 RMS     Force            0.000192     0.000300     YES
 Maximum Displacement     0.001366     0.001800     YES
 RMS     Displacement     0.000909     0.001200     YES
 Predicted change in Energy=-5.166365D-07
 Optimization completed.
    -- Stationary point found.
                           ----------------------------
                           !   Optimized Parameters   !
                           ! (Angstroms and Degrees)  !
 --------------------------                            --------------------------
 ! Name  Definition              Value          Derivative Info.                !
 --------------------------------------------------------------------------------
 ! R1    R(1,2)                  1.2042         -DE/DX =   -0.0003              !
 ! R2    R(1,3)                  1.1205         -DE/DX =   -0.0002              !
 ! R3    R(1,4)                  1.1205         -DE/DX =   -0.0002              !
 ! A1    A(2,1,3)              122.4093         -DE/DX =    0.0001              !
 ! A2    A(2,1,4)              122.4093         -DE/DX =    0.0001              !
 ! A3    A(3,1,4)              115.1813         -DE/DX =   -0.0003              !
 ! D1    D(2,1,4,3)            180.0            -DE/DX =    0.0                 !
 --------------------------------------------------------------------------------
 Lowest energy point so far.  Saving SCF results.
 GradGradGradGradGradGradGradGradGradGradGradGradGradGradGradGradGradGrad

 Largest change from initial coordinates is atom    3       0.018 Angstoms.
 Leave Link  103 at Tue May  9 14:08:36 2017, MaxMem=   131072000 cpu:         0.0
 (Enter /Users/kyagi/Work/pgm/gaussian/g09/l202.exe)
                          Input orientation:                          
 ---------------------------------------------------------------------
 Center     Atomic      Atomic             Coordinates (Angstroms)
 Number     Number       Type             X           Y           Z
 ---------------------------------------------------------------------
      1          6           0        0.000000    0.000000   -0.519344
      2          8           0        0.000000    0.000000    0.684854
      3          1           0       -0.945964    0.000000   -1.119888
      4          1           0        0.945964    0.000000   -1.119888
 ---------------------------------------------------------------------
                    Distance matrix (angstroms):
                    1          2          3          4
     1  C    0.000000
     2  O    1.204198   0.000000
     3  H    1.120492   2.037632   0.000000
     4  H    1.120492   2.037632   1.891929   0.000000
 Stoichiometry    CH2O
 Framework group  C2V[C2(CO),SGV(H2)]
 Deg. of freedom     3
 Full point group                 C2V     NOp   4
 RotChk:  IX=0 Diff= 5.93D-16
 Largest Abelian subgroup         C2V     NOp   4
 Largest concise Abelian subgroup C2      NOp   2
                         Standard orientation:                         
 ---------------------------------------------------------------------
 Center     Atomic      Atomic             Coordinates (Angstroms)
 Number     Number       Type             X           Y           Z
 ---------------------------------------------------------------------
      1          6           0        0.000000    0.000000   -0.527031
      2          8           0        0.000000    0.000000    0.677167
      3          1           0        0.000000    0.945964   -1.127575
      4          1           0        0.000000   -0.945964   -1.127575
 ---------------------------------------------------------------------
 Rotational constants (GHZ):    280.1898851     38.6844540     33.9914236
 Leave Link  202 at Tue May  9 14:08:36 2017, MaxMem=   131072000 cpu:         0.0
 (Enter /Users/kyagi/Work/pgm/gaussian/g09/l601.exe)
 Copying SCF densities to generalized density rwf, IOpCl= 0 IROHF=0.

 **********************************************************************

            Population analysis using the SCF density.

 **********************************************************************

 Orbital symmetries:
       Occupied  (A1) (A1) (A1) (A1) (B2) (A1) (B1) (B2)
       Virtual   (B1) (A1) (B2) (A1) (B1) (A1) (B2) (B2) (A1) (A1)
                 (A1) (A2) (B1) (B2) (B1) (A1) (B2) (A1) (B2) (B1)
                 (A1) (A2) (A1) (B2) (A1) (A2) (A1) (B1) (B2) (A1)
 The electronic state is 1-A1.
 Alpha  occ. eigenvalues --  -19.16015 -10.28984  -1.06342  -0.63279  -0.49193
 Alpha  occ. eigenvalues --   -0.45018  -0.40069  -0.26705
 Alpha virt. eigenvalues --   -0.04414   0.06516   0.13328   0.20822   0.44981
 Alpha virt. eigenvalues --    0.46219   0.53702   0.58744   0.63177   0.75917
 Alpha virt. eigenvalues --    0.87162   0.92586   0.97895   1.05359   1.16496
 Alpha virt. eigenvalues --    1.40613   1.43246   1.53536   1.65345   1.67067
 Alpha virt. eigenvalues --    1.68770   1.72444   2.23439   2.30484   2.39105
 Alpha virt. eigenvalues --    2.67092   2.78925   3.03352   3.32383   3.42043
          Condensed to atoms (all electrons):
               1          2          3          4
     1  C    4.414922   0.707582   0.357638   0.357638
     2  O    0.707582   7.569344  -0.048694  -0.048694
     3  H    0.357638  -0.048694   0.784838  -0.102442
     4  H    0.357638  -0.048694  -0.102442   0.784838
 Mulliken charges:
               1
     1  C    0.162219
     2  O   -0.179538
     3  H    0.008659
     4  H    0.008659
 Sum of Mulliken charges =   0.00000
 Mulliken charges with hydrogens summed into heavy atoms:
               1
     1  C    0.179538
     2  O   -0.179538
 Electronic spatial extent (au):  <R**2>=             60.4748
 Charge=              0.0000 electrons
 Dipole moment (field-independent basis, Debye):
    X=              0.0000    Y=              0.0000    Z=             -2.0696  Tot=              2.0696
 Quadrupole moment (field-independent basis, Debye-Ang):
   XX=            -11.4125   YY=            -11.5753   ZZ=            -11.9176
   XY=              0.0000   XZ=              0.0000   YZ=              0.0000
 Traceless Quadrupole moment (field-independent basis, Debye-Ang):
   XX=              0.2227   YY=              0.0598   ZZ=             -0.2825
   XY=              0.0000   XZ=              0.0000   YZ=              0.0000
 Octapole moment (field-independent basis, Debye-Ang**2):
  XXX=              0.0000  YYY=              0.0000  ZZZ=              1.5368  XYY=              0.0000
  XXY=              0.0000  XXZ=              1.0305  XZZ=              0.0000  YZZ=              0.0000
  YYZ=              0.2787  XYZ=              0.0000
 Hexadecapole moment (field-independent basis, Debye-Ang**3):
 XXXX=             -9.4035 YYYY=            -18.7978 ZZZZ=            -44.5163 XXXY=              0.0000
 XXXZ=              0.0000 YYYX=              0.0000 YYYZ=              0.0000 ZZZX=              0.0000
 ZZZY=              0.0000 XXYY=             -4.9246 XXZZ=             -8.9335 YYZZ=            -10.3135
 XXYZ=              0.0000 YYXZ=              0.0000 ZZXY=              0.0000
 N-N= 3.119549389746D+01 E-N=-3.311264052496D+02  KE= 1.137823417484D+02
 Symmetry A1   KE= 1.034642931094D+02
 Symmetry A2   KE= 1.586017356645D-35
 Symmetry B1   KE= 3.632837680698D+00
 Symmetry B2   KE= 6.685210958284D+00
 No NMR shielding tensors so no spin-rotation constants.
 Leave Link  601 at Tue May  9 14:08:36 2017, MaxMem=   131072000 cpu:         0.1
 (Enter /Users/kyagi/Work/pgm/gaussian/g09/l9999.exe)
 1\1\GINC-KYAGI-MAC2\FOpt\RB3LYP\CC-pVDZ\C1H2O1\KYAGI\09-May-2017\0\\#p
  b3lyp/cc-pvdz opt freq\\H2CO b3lyp/cc-pvdz (opt/freq)\\0,1\C,0.,0.,-0
 .5193439882\O,0.,0.,0.6848544238\H,-0.9459644205,0.,-1.1198877178\H,0.
 9459644205,0.,-1.1198877178\\Version=EM64M-G09RevD.01\State=1-A1\HF=-1
 14.5076401\RMSD=3.926e-09\RMSF=1.829e-04\Dipole=0.,0.,-0.8142474\Quadr
 upole=0.0444874,0.1655427,-0.2100301,0.,0.,0.\PG=C02V [C2(C1O1),SGV(H2
 )]\\@


 CLIMB THE MOUNTAINS AND GET THEIR GOOD TIDINGS.
 NATURE'S PEACE WILL FLOW INTO YOU AS SUNSHINE FLOWS INTO TREES.
 THE WINDS WILL BLOW THEIR OWN FRESHNESS INTO YOU, 
 AND CARES WILL DROP OFF LIKE AUTUMN LEAVES.

                                         -- JOHN MUIR
 Leave Link 9999 at Tue May  9 14:08:36 2017, MaxMem=   131072000 cpu:         0.0
 Job cpu time:       0 days  0 hours  0 minutes  4.1 seconds.
 File lengths (MBytes):  RWF=      5 Int=      0 D2E=      0 Chk=      1 Scr=      1
 Normal termination of Gaussian 09 at Tue May  9 14:08:36 2017.
 (Enter /Users/kyagi/Work/pgm/gaussian/g09/l1.exe)
 Link1:  Proceeding to internal job step number  2.
 -------------------------------------------------------------------
 #P Geom=AllCheck Guess=TCheck SCRF=Check GenChk RB3LYP/CC-pVDZ Freq
 -------------------------------------------------------------------
 1/10=4,29=7,30=1,38=1,40=1/1,3;
 2/12=2,40=1/2;
 3/5=16,11=2,14=-4,16=1,25=1,30=1,70=2,71=2,74=-5,116=1,140=1/1,2,3;
 4/5=101/1;
 5/5=2,98=1/2;
 8/6=4,10=90,11=11/1;
 11/6=1,8=1,9=11,15=111,16=1/1,2,10;
 10/6=1/2;
 6/7=2,8=2,9=2,10=2,18=1,28=1/1;
 7/8=1,10=1,25=1/1,2,3,16;
 1/10=4,30=1/3;
 99//99;
 Leave Link    1 at Tue May  9 14:08:36 2017, MaxMem=   131072000 cpu:         0.0
 (Enter /Users/kyagi/Work/pgm/gaussian/g09/l101.exe)
 Structure from the checkpoint file:  "h2co-b3lyp-dz.chk"
 -----------------------------
 H2CO b3lyp/cc-pvdz (opt/freq)
 -----------------------------
 Charge =  0 Multiplicity = 1
 Redundant internal coordinates found in file.
 C,0,0.,0.,-0.5193439882
 O,0,0.,0.,0.6848544238
 H,0,-0.9459644205,0.,-1.1198877178
 H,0,0.9459644205,0.,-1.1198877178
 Recover connectivity data from disk.
 NAtoms=      4 NQM=        4 NQMF=       0 NMMI=      0 NMMIF=      0
                NMic=       0 NMicF=      0.
                    Isotopes and Nuclear Properties:
 (Nuclear quadrupole moments (NQMom) in fm**2, nuclear magnetic moments (NMagM)
  in nuclear magnetons)

  Atom         1           2           3           4
 IAtWgt=          12          16           1           1
 AtmWgt=  12.0000000  15.9949146   1.0078250   1.0078250
 NucSpn=           0           0           1           1
 AtZEff=  -3.6000000  -5.6000000  -1.0000000  -1.0000000
 NQMom=    0.0000000   0.0000000   0.0000000   0.0000000
 NMagM=    0.0000000   0.0000000   2.7928460   2.7928460
 AtZNuc=   6.0000000   8.0000000   1.0000000   1.0000000
 Leave Link  101 at Tue May  9 14:08:36 2017, MaxMem=   131072000 cpu:         0.1
 (Enter /Users/kyagi/Work/pgm/gaussian/g09/l103.exe)

 GradGradGradGradGradGradGradGradGradGradGradGradGradGradGradGradGradGrad
 Berny optimization.
 Initialization pass.
                           ----------------------------
                           !    Initial Parameters    !
                           ! (Angstroms and Degrees)  !
 --------------------------                            --------------------------
 ! Name  Definition              Value          Derivative Info.                !
 --------------------------------------------------------------------------------
 ! R1    R(1,2)                  1.2042         calculate D2E/DX2 analytically  !
 ! R2    R(1,3)                  1.1205         calculate D2E/DX2 analytically  !
 ! R3    R(1,4)                  1.1205         calculate D2E/DX2 analytically  !
 ! A1    A(2,1,3)              122.4093         calculate D2E/DX2 analytically  !
 ! A2    A(2,1,4)              122.4093         calculate D2E/DX2 analytically  !
 ! A3    A(3,1,4)              115.1813         calculate D2E/DX2 analytically  !
 ! D1    D(2,1,4,3)            180.0            calculate D2E/DX2 analytically  !
 --------------------------------------------------------------------------------
 Trust Radius=3.00D-01 FncErr=1.00D-07 GrdErr=1.00D-07
 Number of steps in this run=      2 maximum allowed number of steps=      2.
 GradGradGradGradGradGradGradGradGradGradGradGradGradGradGradGradGradGrad

 Leave Link  103 at Tue May  9 14:08:36 2017, MaxMem=   131072000 cpu:         0.0
 (Enter /Users/kyagi/Work/pgm/gaussian/g09/l202.exe)
                          Input orientation:                          
 ---------------------------------------------------------------------
 Center     Atomic      Atomic             Coordinates (Angstroms)
 Number     Number       Type             X           Y           Z
 ---------------------------------------------------------------------
      1          6           0        0.000000    0.000000   -0.519344
      2          8           0        0.000000    0.000000    0.684854
      3          1           0       -0.945964    0.000000   -1.119888
      4          1           0        0.945964    0.000000   -1.119888
 ---------------------------------------------------------------------
                    Distance matrix (angstroms):
                    1          2          3          4
     1  C    0.000000
     2  O    1.204198   0.000000
     3  H    1.120492   2.037632   0.000000
     4  H    1.120492   2.037632   1.891929   0.000000
 Stoichiometry    CH2O
 Framework group  C2V[C2(CO),SGV(H2)]
 Deg. of freedom     3
 Full point group                 C2V     NOp   4
 RotChk:  IX=0 Diff= 1.87D-15
 Largest Abelian subgroup         C2V     NOp   4
 Largest concise Abelian subgroup C2      NOp   2
                         Standard orientation:                         
 ---------------------------------------------------------------------
 Center     Atomic      Atomic             Coordinates (Angstroms)
 Number     Number       Type             X           Y           Z
 ---------------------------------------------------------------------
      1          6           0        0.000000    0.000000   -0.527031
      2          8           0        0.000000    0.000000    0.677167
      3          1           0        0.000000    0.945964   -1.127575
      4          1           0        0.000000   -0.945964   -1.127575
 ---------------------------------------------------------------------
 Rotational constants (GHZ):    280.1898851     38.6844540     33.9914236
 Leave Link  202 at Tue May  9 14:08:36 2017, MaxMem=   131072000 cpu:         0.0
 (Enter /Users/kyagi/Work/pgm/gaussian/g09/l301.exe)
 Standard basis: CC-pVDZ (5D, 7F)
 Ernie: Thresh=  0.10000D-02 Tol=  0.10000D-05 Strict=F.
 Ernie:  4 primitive shells out of 54 were deleted.
 There are    20 symmetry adapted cartesian basis functions of A1  symmetry.
 There are     3 symmetry adapted cartesian basis functions of A2  symmetry.
 There are     7 symmetry adapted cartesian basis functions of B1  symmetry.
 There are    10 symmetry adapted cartesian basis functions of B2  symmetry.
 There are    18 symmetry adapted basis functions of A1  symmetry.
 There are     3 symmetry adapted basis functions of A2  symmetry.
 There are     7 symmetry adapted basis functions of B1  symmetry.
 There are    10 symmetry adapted basis functions of B2  symmetry.
    38 basis functions,    80 primitive gaussians,    40 cartesian basis functions
     8 alpha electrons        8 beta electrons
       nuclear repulsion energy        31.1954938975 Hartrees.
 IExCor=  402 DFT=T Ex+Corr=B3LYP ExCW=0 ScaHFX=  0.200000
 ScaDFX=  0.800000  0.720000  1.000000  0.810000 ScalE2=  1.000000  1.000000
 IRadAn=      0 IRanWt=     -1 IRanGd=            0 ICorTp=0 IEmpDi=  4
 NAtoms=    4 NActive=    4 NUniq=    3 SFac= 1.78D+00 NAtFMM=   60 NAOKFM=F Big=F
 Integral buffers will be    131072 words long.
 Raffenetti 2 integral format.
 Two-electron integral symmetry is turned on.
 Leave Link  301 at Tue May  9 14:08:36 2017, MaxMem=   131072000 cpu:         0.0
 (Enter /Users/kyagi/Work/pgm/gaussian/g09/l302.exe)
 NPDir=0 NMtPBC=     1 NCelOv=     1 NCel=       1 NClECP=     1 NCelD=      1
         NCelK=      1 NCelE2=     1 NClLst=     1 CellRange=     0.0.
 One-electron integrals computed using PRISM.
 One-electron integral symmetry used in STVInt
 NBasis=    38 RedAO= T EigKep=  3.63D-02  NBF=    18     3     7    10
 NBsUse=    38 1.00D-06 EigRej= -1.00D+00 NBFU=    18     3     7    10
 Precomputing XC quadrature grid using
 IXCGrd= 4 IRadAn=           0 IRanWt=          -1 IRanGd=           0 AccXCQ= 0.00D+00.
 Generated NRdTot=       0 NPtTot=           0 NUsed=           0 NTot=          32
 NSgBfM=    40    40    40    40    40 MxSgAt=     4 MxSgA2=     4.
 Leave Link  302 at Tue May  9 14:08:36 2017, MaxMem=   131072000 cpu:         0.1
 (Enter /Users/kyagi/Work/pgm/gaussian/g09/l303.exe)
 DipDrv:  MaxL=1.
 Leave Link  303 at Tue May  9 14:08:36 2017, MaxMem=   131072000 cpu:         0.0
 (Enter /Users/kyagi/Work/pgm/gaussian/g09/l401.exe)
 Initial guess from the checkpoint file:  "h2co-b3lyp-dz.chk"
 B after Tr=     0.000000    0.000000    0.000000
         Rot=    1.000000    0.000000    0.000000    0.000000 Ang=   0.00 deg.
 Guess basis will be translated and rotated to current coordinates.
 JPrj=2 DoOrth=T DoCkMO=T.
 Initial guess orbital symmetries:
       Occupied  (A1) (A1) (A1) (A1) (B2) (A1) (B1) (B2)
[...]
   XY=              0.0000   XZ=              0.0000   YZ=              0.0000
 Traceless Quadrupole moment (field-independent basis, Debye-Ang):
   XX=              0.2227   YY=              0.0598   ZZ=             -0.2825
   XY=              0.0000   XZ=              0.0000   YZ=              0.0000
 Octapole moment (field-independent basis, Debye-Ang**2):
  XXX=              0.0000  YYY=              0.0000  ZZZ=              1.5368  XYY=              0.0000
  XXY=              0.0000  XXZ=              1.0305  XZZ=              0.0000  YZZ=              0.0000
  YYZ=              0.2787  XYZ=              0.0000
 Hexadecapole moment (field-independent basis, Debye-Ang**3):
 XXXX=             -9.4035 YYYY=            -18.7978 ZZZZ=            -44.5163 XXXY=              0.0000
 XXXZ=              0.0000 YYYX=              0.0000 YYYZ=              0.0000 ZZZX=              0.0000
 ZZZY=              0.0000 XXYY=             -4.9246 XXZZ=             -8.9335 YYZZ=            -10.3135
 XXYZ=              0.0000 YYXZ=              0.0000 ZZXY=              0.0000
 N-N= 3.119549389746D+01 E-N=-3.311264050538D+02  KE= 1.137823416528D+02
 Symmetry A1   KE= 1.034642930792D+02
 Symmetry A2   KE= 1.586017318679D-35
 Symmetry B1   KE= 3.632837645668D+00
 Symmetry B2   KE= 6.685210927978D+00
  Exact polarizability:   7.439   0.000  14.634   0.000   0.000  18.604
 Approx polarizability:   9.974   0.000  17.257   0.000   0.000  31.395
 No NMR shielding tensors so no spin-rotation constants.
 Leave Link  601 at Tue May  9 14:08:39 2017, MaxMem=   131072000 cpu:         0.1
 (Enter /Users/kyagi/Work/pgm/gaussian/g09/l701.exe)
 Compute integral second derivatives.
 ... and contract with generalized density number  0.
 Leave Link  701 at Tue May  9 14:08:39 2017, MaxMem=   131072000 cpu:         0.1
 (Enter /Users/kyagi/Work/pgm/gaussian/g09/l702.exe)
 L702 exits ... SP integral derivatives will be done elsewhere.
 Leave Link  702 at Tue May  9 14:08:39 2017, MaxMem=   131072000 cpu:         0.0
 (Enter /Users/kyagi/Work/pgm/gaussian/g09/l703.exe)
 Compute integral second derivatives, UseDBF=F ICtDFT=           0.
 Integral derivatives from FoFJK, PRISM(SPDF).
 Calling FoFJK, ICntrl=    100127 FMM=F ISym2X=1 I1Cent= 0 IOpClX= 0 NMat=1 NMatS=1 NMatT=0.
 FoFJK:  IHMeth= 1 ICntrl=  100127 DoSepK=F KAlg= 0 I1Cent=   0 FoldK=F
 IRaf=         0 NMat=   1 IRICut=       1 DoRegI=T DoRafI=F ISym2E= 1.
 FoFCou: FMM=F IPFlag=           0 FMFlag=      100000 FMFlg1=         800
         NFxFlg=           0 DoJE=F BraDBF=F KetDBF=F FulRan=T
         wScrn=  0.000000 ICntrl=  100127 IOpCl=  0 I1Cent=           0 NGrid=           0
         NMat0=    1 NMatS0=      1 NMatT0=    0 NMatD0=    1 NMtDS0=    0 NMtDT0=    0
 Petite list used in FoFCou.
 Leave Link  703 at Tue May  9 14:08:40 2017, MaxMem=   131072000 cpu:         0.7
 (Enter /Users/kyagi/Work/pgm/gaussian/g09/l716.exe)
 Dipole        = 6.79486573D-18 1.49403059D-16-8.14247296D-01
 Polarizability= 7.43873847D+00 1.00832830D-10 1.46337005D+01
                 9.95331759D-10-3.07713900D-08 1.86035249D+01
 Full mass-weighted force constant matrix:
 Low frequencies ---   -0.0019   -0.0014   -0.0012   11.0755   27.5019   63.7336
 Low frequencies --- 1186.9258 1254.0257 1515.1241
 Diagonal vibrational polarizability:
        0.0301162       0.8338194       1.1356951
 Harmonic frequencies (cm**-1), IR intensities (KM/Mole), Raman scattering
 activities (A**4/AMU), depolarization ratios for plane and unpolarized
 incident light, reduced masses (AMU), force constants (mDyne/A),
 and normal coordinates:
                      1                      2                      3
                     B1                     B2                     A1
 Frequencies --   1186.9258              1254.0254              1515.1241
 Red. masses --      1.3734                 1.3482                 1.1008
 Frc consts  --      1.1400                 1.2491                 1.4889
 IR Inten    --      1.5766                15.9782                 5.7844
  Atom  AN      X      Y      Z        X      Y      Z        X      Y      Z
     1   6     0.18   0.00   0.00     0.00   0.15   0.00     0.00   0.00   0.00
     2   8    -0.04   0.00   0.00     0.00  -0.08   0.00     0.00   0.00   0.08
     3   1    -0.70   0.00   0.00     0.00  -0.25  -0.65     0.00  -0.35  -0.61
     4   1    -0.70   0.00   0.00     0.00  -0.25   0.65     0.00   0.35  -0.61
                      4                      5                      6
                     A1                     A1                     B2
 Frequencies --   1831.7986              2863.0642              2916.2717
 Red. masses --      7.5829                 1.0452                 1.1213
 Frc consts  --     14.9913                 5.0479                 5.6188
 IR Inten    --    108.8065                59.4730               177.0970
  Atom  AN      X      Y      Z        X      Y      Z        X      Y      Z
     1   6     0.00   0.00   0.60     0.00   0.00   0.06     0.00   0.10   0.00
     2   8     0.00   0.00  -0.42     0.00   0.00   0.00     0.00   0.00   0.00
     3   1     0.00  -0.44  -0.19     0.00   0.61  -0.36     0.00  -0.60   0.37
     4   1     0.00   0.44  -0.19     0.00  -0.61  -0.36     0.00  -0.60  -0.37

 -------------------
 - Thermochemistry -
 -------------------
 Temperature   298.150 Kelvin.  Pressure   1.00000 Atm.
 Atom     1 has atomic number  6 and mass  12.00000
 Atom     2 has atomic number  8 and mass  15.99491
 Atom     3 has atomic number  1 and mass   1.00783
 Atom     4 has atomic number  1 and mass   1.00783
 Molecular mass:    30.01056 amu.
 Principal axes and moments of inertia in atomic units:
                           1         2         3
     Eigenvalues --     6.44114  46.65288  53.09402
           X            0.00000   0.00000   1.00000
           Y            0.00000   1.00000   0.00000
           Z            1.00000   0.00000   0.00000
 This molecule is an asymmetric top.
 Rotational symmetry number  2.
 Rotational temperatures (Kelvin)     13.44698     1.85656     1.63133
 Rotational constants (GHZ):         280.18989    38.68445    33.99142
 Zero-point vibrational energy      69187.3 (Joules/Mol)
                                   16.53616 (Kcal/Mol)
 Vibrational temperatures:   1707.72  1804.26  2179.92  2635.55  4119.31
          (Kelvin)           4195.86
 
 Zero-point correction=                           0.026352 (Hartree/Particle)
 Thermal correction to Energy=                    0.029222
 Thermal correction to Enthalpy=                  0.030166
 Thermal correction to Gibbs Free Energy=         0.005334
 Sum of electronic and zero-point Energies=           -114.481288
 Sum of electronic and thermal Energies=              -114.478419
 Sum of electronic and thermal Enthalpies=            -114.477474
 Sum of electronic and thermal Free Energies=         -114.502306
 
                     E (Thermal)             CV                S
                      KCal/Mol        Cal/Mol-Kelvin    Cal/Mol-Kelvin
 Total                   18.337              6.442             52.262
 Electronic               0.000              0.000              0.000
 Translational            0.889              2.981             36.130
 Rotational               0.889              2.981             16.041
 Vibrational             16.559              0.480              0.091
                       Q            Log10(Q)             Ln(Q)
 Total Bot       0.351841D-02         -2.453653         -5.649745
 Total V=0       0.464964D+10          9.667419         22.260056
 Vib (Bot)       0.761589D-12        -12.118279        -27.903369
 Vib (V=0)       0.100645D+01          0.002793          0.006432
 Electronic      0.100000D+01          0.000000          0.000000
 Translational   0.646199D+07          6.810366         15.681448
 Rotational      0.714924D+03          2.854260          6.572176
 
                                                    H2CO b3lyp/cc-pvdz (opt/freq)
                                                             IR Spectrum
 
     2  2                                            1             1          1  1                                                   
     9  8                                            8             5          2  1                                                   
     1  6                                            3             1          5  8                                                   
     6  3                                            2             5          4  7                                                   
 
     X  X                                            X             X          X  X                                                   
     X  X                                            X                        X                                                      
     X  X                                            X                                                                               
     X  X                                            X                                                                               
     X  X                                            X                                                                               
     X  X                                            X                                                                               
     X  X                                            X                                                                               
     X                                               X                                                                               
     X                                               X                                                                               
     X                                               X                                                                               
     X                                               X                                                                               
     X                                               X                                                                               
     X                                                                                                                               
     X                                                                                                                               
     X                                                                                                                               
     X                                                                                                                               
     X                                                                                                                               
     X                                                                                                                               
     X                                                                                                                               
     X                                                                                                                               
 
 ***** Axes restored to original set *****
 -------------------------------------------------------------------
 Center     Atomic                   Forces (Hartrees/Bohr)
 Number     Number              X              Y              Z
 -------------------------------------------------------------------
      1        6           0.000000000    0.000000000    0.000423703
      2        8           0.000000000    0.000000000   -0.000290115
      3        1           0.000253854    0.000000000   -0.000066794
      4        1          -0.000253854    0.000000000   -0.000066794
 -------------------------------------------------------------------
 Cartesian Forces:  Max     0.000423703 RMS     0.000182916
 Force constants in Cartesian coordinates: 
                1             2             3             4             5 
      1  0.568026D+00
      2  0.000000D+00  0.171475D+00
      3  0.000000D+00  0.000000D+00  0.100025D+01
      4 -0.106219D+00  0.000000D+00  0.000000D+00  0.725756D-01
      5  0.000000D+00 -0.571302D-01  0.000000D+00  0.000000D+00  0.190526D-01
      6  0.000000D+00  0.000000D+00 -0.808571D+00  0.000000D+00  0.000000D+00
      7 -0.230904D+00  0.000000D+00 -0.749511D-01  0.168216D-01  0.000000D+00
      8  0.000000D+00 -0.571724D-01  0.000000D+00  0.000000D+00  0.190388D-01
      9 -0.790853D-01  0.000000D+00 -0.958409D-01 -0.354471D-01  0.000000D+00
     10 -0.230904D+00  0.000000D+00  0.749511D-01  0.168216D-01  0.000000D+00
     11  0.000000D+00 -0.571724D-01  0.000000D+00  0.000000D+00  0.190388D-01
     12  0.790853D-01  0.000000D+00 -0.958409D-01  0.354471D-01  0.000000D+00
                6             7             8             9            10 
      6  0.890823D+00
      7 -0.182738D-01  0.232573D+00
      8  0.000000D+00  0.000000D+00  0.191443D-01
      9 -0.411256D-01  0.103879D+00  0.000000D+00  0.127488D+00
     10  0.182738D-01 -0.184906D-01  0.000000D+00  0.106538D-01  0.232573D+00
     11  0.000000D+00  0.000000D+00  0.189894D-01  0.000000D+00  0.000000D+00
     12 -0.411256D-01 -0.106538D-01  0.000000D+00  0.947848D-02 -0.103879D+00
               11            12 
     11  0.191443D-01
     12  0.000000D+00  0.127488D+00
 FormGI is forming the generalized inverse of G from B-inverse, IUseBI=4.
 Force constants in internal coordinates: 
                1             2             3             4             5 
      1  0.890823D+00
      2  0.374693D-01  0.296393D+00
      3  0.374693D-01  0.626044D-02  0.296393D+00
      4  0.175928D-01  0.121033D-02 -0.971673D-02  0.115059D+00
      5  0.175928D-01 -0.971673D-02  0.121033D-02 -0.725700D-01  0.115059D+00
      6 -0.351856D-01  0.850640D-02  0.850640D-02 -0.424894D-01 -0.424894D-01
      7  0.000000D+00  0.000000D+00  0.000000D+00  0.000000D+00  0.000000D+00
                6             7 
      6  0.849789D-01
      7  0.000000D+00  0.699518D-01
 Leave Link  716 at Tue May  9 14:08:40 2017, MaxMem=   131072000 cpu:         0.0
 (Enter /Users/kyagi/Work/pgm/gaussian/g09/l103.exe)

 GradGradGradGradGradGradGradGradGradGradGradGradGradGradGradGradGradGrad
 Berny optimization.
 Red2BG is reusing G-inverse.
 Internal  Forces:  Max     0.000290115 RMS     0.000192206
 Search for a local minimum.
 Step number   1 out of a maximum of    2
 All quantities printed in internal units (Hartrees-Bohrs-Radians)
 Second derivative matrix not updated -- analytic derivatives used.
 The second derivative matrix:
                          R1        R2        R3        A1        A2
           R1           0.89082
           R2           0.03747   0.29639
           R3           0.03747   0.00626   0.29639
           A1           0.01759   0.00121  -0.00972   0.11506
           A2           0.01759  -0.00972   0.00121  -0.07257   0.11506
           A3          -0.03519   0.00851   0.00851  -0.04249  -0.04249
           D1           0.00000   0.00000   0.00000   0.00000   0.00000
                          A3        D1
           A3           0.08498
           D1           0.00000   0.06995
 ITU=  0
     Eigenvalues ---    0.06995   0.12326   0.18648   0.29128   0.29987
     Eigenvalues ---    0.89781
 Angle between quadratic step and forces=  34.13 degrees.
 Linear search not attempted -- first point.
 Iteration  1 RMS(Cart)=  0.00104125 RMS(Int)=  0.00000071
 Iteration  2 RMS(Cart)=  0.00000061 RMS(Int)=  0.00000000
 ITry= 1 IFail=0 DXMaxC= 1.62D-03 DCOld= 1.00D+10 DXMaxT= 3.00D-01 DXLimC= 3.00D+00 Rises=F
 ClnCor:  largest displacement from symmetrization is 3.23D-11 for atom     1.
 Variable       Old X    -DE/DX   Delta X   Delta X   Delta X     New X
                                 (Linear)    (Quad)   (Total)
    R1        2.27561  -0.00029   0.00000  -0.00042  -0.00042   2.27519
    R2        2.11742  -0.00018   0.00000  -0.00045  -0.00045   2.11698
    R3        2.11742  -0.00018   0.00000  -0.00045  -0.00045   2.11698
    A1        2.13645   0.00014   0.00000   0.00109   0.00109   2.13754
    A2        2.13645   0.00014   0.00000   0.00109   0.00109   2.13754
    A3        2.01029  -0.00027   0.00000  -0.00219  -0.00219   2.00811
    D1        3.14159   0.00000   0.00000   0.00000   0.00000   3.14159
         Item               Value     Threshold  Converged?
 Maximum Force            0.000290     0.000450     YES
 RMS     Force            0.000192     0.000300     YES
 Maximum Displacement     0.001618     0.001800     YES
 RMS     Displacement     0.001041     0.001200     YES
 Predicted change in Energy=-5.857882D-07
 Optimization completed.
    -- Stationary point found.
                           ----------------------------
                           !   Optimized Parameters   !
                           ! (Angstroms and Degrees)  !
 --------------------------                            --------------------------
 ! Name  Definition              Value          Derivative Info.                !
 --------------------------------------------------------------------------------
 ! R1    R(1,2)                  1.2042         -DE/DX =   -0.0003              !
 ! R2    R(1,3)                  1.1205         -DE/DX =   -0.0002              !
 ! R3    R(1,4)                  1.1205         -DE/DX =   -0.0002              !
 ! A1    A(2,1,3)              122.4093         -DE/DX =    0.0001              !
 ! A2    A(2,1,4)              122.4093         -DE/DX =    0.0001              !
 ! A3    A(3,1,4)              115.1813         -DE/DX =   -0.0003              !
 ! D1    D(2,1,4,3)            180.0            -DE/DX =    0.0                 !
 --------------------------------------------------------------------------------
 GradGradGradGradGradGradGradGradGradGradGradGradGradGradGradGradGradGrad

 Leave Link  103 at Tue May  9 14:08:40 2017, MaxMem=   131072000 cpu:         0.0
 (Enter /Users/kyagi/Work/pgm/gaussian/g09/l9999.exe)
 1\1\GINC-KYAGI-MAC2\Freq\RB3LYP\CC-pVDZ\C1H2O1\KYAGI\09-May-2017\0\\#P
  Geom=AllCheck Guess=TCheck SCRF=Check GenChk RB3LYP/CC-pVDZ Freq\\H2C
 O b3lyp/cc-pvdz (opt/freq)\\0,1\C,0.,0.,-0.5193439882\O,0.,0.,0.684854
 4238\H,-0.9459644205,0.,-1.1198877178\H,0.9459644205,0.,-1.1198877178\
 \Version=EM64M-G09RevD.01\State=1-A1\HF=-114.5076401\RMSD=5.452e-10\RM
 SF=1.829e-04\ZeroPoint=0.026352\Thermal=0.0292216\Dipole=0.,0.,-0.8142
 473\DipoleDeriv=0.8971241,0.,0.,0.,0.1659841,0.,0.,0.,1.0381904,-0.426
 4264,0.,0.,0.,-0.2940083,0.,0.,0.,-0.9085763,-0.2353489,0.,-0.1204343,
 0.,0.0640121,0.,-0.105718,0.,-0.064807,-0.2353489,0.,0.1204343,0.,0.06
 40121,0.,0.105718,0.,-0.064807\Polar=14.6337005,0.,7.4387385,0.,0.,18.
 6035249\PG=C02V [C2(C1O1),SGV(H2)]\NImag=0\\0.56802608,0.,0.17147502,0
 .,0.,1.00025311,-0.10621875,0.,0.,0.07257558,0.,-0.05713018,0.,0.,0.01
 905262,0.,0.,-0.80857134,0.,0.,0.89082255,-0.23090367,0.,-0.07495107,0
 .01682158,0.,-0.01827377,0.23257263,0.,-0.05717242,0.,0.,0.01903878,0.
 ,0.,0.01914428,-0.07908529,0.,-0.09584088,-0.03544713,0.,-0.04112560,0
 .10387863,0.,0.12748801,-0.23090367,0.,0.07495107,0.01682158,0.,0.0182
 7377,-0.01849055,0.,0.01065379,0.23257263,0.,-0.05717242,0.,0.,0.01903
 878,0.,0.,0.01898936,0.,0.,0.01914428,0.07908529,0.,-0.09584088,0.0354
 4713,0.,-0.04112560,-0.01065379,0.,0.00947848,-0.10387863,0.,0.1274880
 1\\0.,0.,-0.00042370,0.,0.,0.00029011,-0.00025385,0.,0.00006679,0.0002
 5385,0.,0.00006679\\\@


 THERE'S NOTHING WRONG WITH FOLLOWING A TRAIN OF THOUGHT...
 AS LONG AS IT ULTIMATELY PULLS INTO THE STATION.
 Job cpu time:       0 days  0 hours  0 minutes  3.8 seconds.
 File lengths (MBytes):  RWF=      5 Int=      0 D2E=      0 Chk=      1 Scr=      1
 Normal termination of Gaussian 09 at Tue May  9 14:08:40 2017.

real	0m8.093s
user	0m6.524s
sys	0m1.351s
