 Entering Gaussian System, Link 0=g09
 Initial command:
 /gwfefs/opt/x86_64/gaussian/09/D.01/g09/l1.exe "/tmp/FeB-his3-glu-NO_d.23554/Gau-23590.inp" -scrdir="/tmp/FeB-his3-glu-NO_d.23554/"
 Entering Link 1 = /gwfefs/opt/x86_64/gaussian/09/D.01/g09/l1.exe PID=     23591.
  
 Copyright (c) 1988,1990,1992,1993,1995,1998,2003,2009,2013,
            Gaussian, Inc.  All Rights Reserved.
  
 This is part of the Gaussian(R) 09 program.  It is based on
 the Gaussian(R) 03 system (copyright 2003, Gaussian, Inc.),
 the Gaussian(R) 98 system (copyright 1998, Gaussian, Inc.),
 the Gaussian(R) 94 system (copyright 1995, Gaussian, Inc.),
 the Gaussian 92(TM) system (copyright 1992, Gaussian, Inc.),
 the Gaussian 90(TM) system (copyright 1990, Gaussian, Inc.),
 the Gaussian 88(TM) system (copyright 1988, Gaussian, Inc.),
 the Gaussian 86(TM) system (copyright 1986, Carnegie Mellon
 University), and the Gaussian 82(TM) system (copyright 1983,
 Carnegie Mellon University). Gaussian is a federally registered
 trademark of Gaussian, Inc.
  
 This software contains proprietary and confidential information,
 including trade secrets, belonging to Gaussian, Inc.
  
 This software is provided under written license and may be
 used, copied, transmitted, or stored only in accord with that
 written license.
  
 The following legend is applicable only to US Government
 contracts under FAR:
  
                    RESTRICTED RIGHTS LEGEND
  
 Use, reproduction and disclosure by the US Government is
 subject to restrictions as set forth in subparagraphs (a)
 and (c) of the Commercial Computer Software - Restricted
 Rights clause in FAR 52.227-19.
  
 Gaussian, Inc.
 340 Quinnipiac St., Bldg. 40, Wallingford CT 06492
  
  
 ---------------------------------------------------------------
 Warning -- This program may not be used in any manner that
 competes with the business of Gaussian, Inc. or will provide
 assistance to any competitor of Gaussian, Inc.  The licensee
 of this program is prohibited from giving any competitor of
 Gaussian, Inc. access to this program.  By using this program,
 the user acknowledges that Gaussian, Inc. is engaged in the
 business of creating and licensing software in the field of
 computational chemistry and represents and warrants to the
 licensee that it is not a competitor of Gaussian, Inc. and that
 it will not use this program in any manner prohibited above.
 ---------------------------------------------------------------
  

 Cite this work as:
 Gaussian 09, Revision D.01,
 M. J. Frisch, G. W. Trucks, H. B. Schlegel, G. E. Scuseria, 
 M. A. Robb, J. R. Cheeseman, G. Scalmani, V. Barone, B. Mennucci, 
 G. A. Petersson, H. Nakatsuji, M. Caricato, X. Li, H. P. Hratchian, 
 A. F. Izmaylov, J. Bloino, G. Zheng, J. L. Sonnenberg, M. Hada, 
 M. Ehara, K. Toyota, R. Fukuda, J. Hasegawa, M. Ishida, T. Nakajima, 
 Y. Honda, O. Kitao, H. Nakai, T. Vreven, J. A. Montgomery, Jr., 
 J. E. Peralta, F. Ogliaro, M. Bearpark, J. J. Heyd, E. Brothers, 
 K. N. Kudin, V. N. Staroverov, T. Keith, R. Kobayashi, J. Normand, 
 K. Raghavachari, A. Rendell, J. C. Burant, S. S. Iyengar, J. Tomasi, 
 M. Cossi, N. Rega, J. M. Millam, M. Klene, J. E. Knox, J. B. Cross, 
 V. Bakken, C. Adamo, J. Jaramillo, R. Gomperts, R. E. Stratmann, 
 O. Yazyev, A. J. Austin, R. Cammi, C. Pomelli, J. W. Ochterski, 
 R. L. Martin, K. Morokuma, V. G. Zakrzewski, G. A. Voth, 
 P. Salvador, J. J. Dannenberg, S. Dapprich, A. D. Daniels, 
 O. Farkas, J. B. Foresman, J. V. Ortiz, J. Cioslowski, 
 and D. J. Fox, Gaussian, Inc., Wallingford CT, 2013.
 
 ******************************************
 Gaussian 09:  ES64L-G09RevD.01 24-Apr-2013
                 4-Nov-2015 
 ******************************************
 %nprocshared=12
 Will use up to   12 processors via shared memory.
 %chk=FeB-his3-glu-NO_d.chk
 %mem=8GB
 ------------------------------------------------------------
 #P B3LYP/gen OPT=readopt pseudo=read NOSYMMETRY MAXDISK=50GB
 ------------------------------------------------------------
 1/14=-1,18=20,19=15,26=3,29=6000,38=1/1,3;
 2/9=110,12=2,15=1,17=6,18=5,40=1/2;
 3/5=7,11=2,16=1,17=8,25=1,30=1,71=1,74=-5/1,2,3;
 4//1;
 5/5=2,38=5/2;
 6/7=2,8=2,9=2,10=2,28=1/1;
 7/30=1/1,2,3,16;
 1/14=-1,18=20,19=15,26=3/3(2);
 2/9=110,15=1/2;
 99//99;
 2/9=110,15=1/2;
 3/5=7,6=1,11=2,16=1,17=8,25=1,30=1,71=1,74=-5,82=7/1,2,3;
 4/5=5,16=3,69=1/1;
 5/5=2,38=5/2;
 7/30=1/1,2,3,16;
 1/14=-1,18=20,19=15,26=3/3(-5);
 2/9=110,15=1/2;
 6/7=2,8=2,9=2,10=2,19=2,28=1/1;
 99/9=1/99;
 Leave Link    1 at Wed Nov  4 18:23:43 2015, MaxMem=  1073741824 cpu:         1.0
 (Enter /gwfefs/opt/x86_64/gaussian/09/D.01/g09/l101.exe)
 -----------------------
 opt at B3LYP/6-31G(d,p)
 -----------------------
 Symbolic Z-matrix:
 Charge =  1 Multiplicity = 2
 C                     7.38149   1.14676   5.03404 
 H                     7.12841   0.26582   5.43364 
 H                     7.97028   0.94671   4.25129 
 H                     6.50176   1.69981   4.69978 
 C                     8.17448   1.94558   6.09838 
 H                     7.48264   2.38629   6.81779 
 H                     8.80508   1.24292   6.65861 
 N                     8.78744   4.38146   5.54397 
 C                     9.07895   3.01829   5.55713 
 C                     9.8179    5.00454   4.98566 
 H                     9.88589   6.06631   4.81159 
 N                     10.77068   4.11077   4.64534 
 H                     11.65277   4.32914   4.20387 
 C                     10.32508   2.85397   5.00075 
 H                     10.91703   1.96717   4.83481 
 C                     7.27535   3.96963   0.27347 
 H                     6.87091   3.10399   0.56751 
 H                     8.10158   3.82435  -0.27064 
 H                     6.54113   4.47245  -0.37082 
 C                     7.46977   4.76523   1.56969 
 H                     7.82278   5.78676   1.39469 
 H                     8.23147   4.26684   2.18422 
 C                     6.12739   4.79832   2.35061 
 H                     5.59347   3.84954   2.24213 
 H                     5.4848    5.59237   1.95082 
 C                     6.35768   5.03492   3.81179 
 O                     6.97048   6.0954    4.2002 
 O                     6.05766   4.18093   4.70729 
 C                     9.85488   8.77752   10.23673 
 H                     10.71001   8.39329   9.8892 
 H                     9.39166   8.15915   10.8713 
 H                     10.21458   9.56443   10.92243 
 C                     9.01851   9.54151   9.20236 
 H                     8.16502   10.01597   9.70717 
 H                     9.62903   10.36732   8.81332 
 N                     8.06881   9.21812   6.86285 
 H                     8.02638   10.19495   6.60492 
 C                     8.5345    8.71197   8.06619 
 C                     7.68      8.18359   6.07964 
 H                     7.28259   8.2767    5.08039 
 N                     7.86799   7.03595   6.7226 
 C                     8.40559   7.35927   7.95236 
 H                     8.65338   6.60543   8.67819 
 C                     8.80888   5.59209   11.97689 
 H                     9.23622   6.25168   11.3587 
 H                     9.39111   5.41413   12.77042 
 H                     7.87332   6.03569   12.34246 
 C                     8.52367   4.23325   11.28177 
 H                     8.04074   3.55648   11.99834 
 H                     9.47488   3.75926   11.01499 
 N                     6.34037   4.57303   10.00362 
 H                     5.72586   4.59701   10.80628 
 C                     7.70561   4.3309    10.03112 
 C                     5.94916   4.71514   8.71107 
 H                     4.92809   4.90295   8.41161 
 N                     6.98798   4.59205   7.89811 
 C                     8.07747   4.32746   8.71127 
 H                     9.06169   4.18046   8.2935 
 Fe                    7.1329    5.33744   6.00516 
 N                     5.35692   6.36358   6.50019 
 O                     4.77593   7.25055   6.53223 
 
 AtmSel:  Line="atoms=1-61 notatoms=1,2,3,16,17,18,29,30,31,44,45,46"
 AtmSel:  NamVal=Blocks NAtLst=    49 NIVal=     0 NNoVal=     0:
 AtmSel:  IAtLst=      4      5      6      7      8      9     10     11     12     13
 AtmSel:  IAtLst=     14     15     19     20     21     22     23     24     25     26
 AtmSel:  IAtLst=     27     28     32     33     34     35     36     37     38     39
 AtmSel:  IAtLst=     40     41     42     43     47     48     49     50     51     52
 AtmSel:  IAtLst=     53     54     55     56     57     58     59     60     61
 NAtoms=     61 NQM=       49 NQMF=      12 NMMI=      0 NMMIF=      0
                NMic=       0 NMicF=      0.
                    Isotopes and Nuclear Properties:
 (Nuclear quadrupole moments (NQMom) in fm**2, nuclear magnetic moments (NMagM)
  in nuclear magnetons)

  Atom         1           2           3           4           5           6           7           8           9          10
 IAtWgt=          12           1           1           1          12           1           1          14          12          12
 AtmWgt=  12.0000000   1.0078250   1.0078250   1.0078250  12.0000000   1.0078250   1.0078250  14.0030740  12.0000000  12.0000000
 NucSpn=           0           1           1           1           0           1           1           2           0           0
 AtZEff=   0.0000000   0.0000000   0.0000000   0.0000000   0.0000000   0.0000000   0.0000000   0.0000000   0.0000000   0.0000000
 NQMom=    0.0000000   0.0000000   0.0000000   0.0000000   0.0000000   0.0000000   0.0000000   2.0440000   0.0000000   0.0000000
 NMagM=    0.0000000   2.7928460   2.7928460   2.7928460   0.0000000   2.7928460   2.7928460   0.4037610   0.0000000   0.0000000
 AtZNuc=   6.0000000   1.0000000   1.0000000   1.0000000   6.0000000   1.0000000   1.0000000   7.0000000   6.0000000   6.0000000

  Atom        11          12          13          14          15          16          17          18          19          20
 IAtWgt=           1          14           1          12           1          12           1           1           1          12
 AtmWgt=   1.0078250  14.0030740   1.0078250  12.0000000   1.0078250  12.0000000   1.0078250   1.0078250   1.0078250  12.0000000
 NucSpn=           1           2           1           0           1           0           1           1           1           0
 AtZEff=   0.0000000   0.0000000   0.0000000   0.0000000   0.0000000   0.0000000   0.0000000   0.0000000   0.0000000   0.0000000
 NQMom=    0.0000000   2.0440000   0.0000000   0.0000000   0.0000000   0.0000000   0.0000000   0.0000000   0.0000000   0.0000000
 NMagM=    2.7928460   0.4037610   2.7928460   0.0000000   2.7928460   0.0000000   2.7928460   2.7928460   2.7928460   0.0000000
 AtZNuc=   1.0000000   7.0000000   1.0000000   6.0000000   1.0000000   6.0000000   1.0000000   1.0000000   1.0000000   6.0000000

  Atom        21          22          23          24          25          26          27          28          29          30
 IAtWgt=           1           1          12           1           1          12          16          16          12           1
 AtmWgt=   1.0078250   1.0078250  12.0000000   1.0078250   1.0078250  12.0000000  15.9949146  15.9949146  12.0000000   1.0078250
 NucSpn=           1           1           0           1           1           0           0           0           0           1
 AtZEff=   0.0000000   0.0000000   0.0000000   0.0000000   0.0000000   0.0000000   0.0000000   0.0000000   0.0000000   0.0000000
 NQMom=    0.0000000   0.0000000   0.0000000   0.0000000   0.0000000   0.0000000   0.0000000   0.0000000   0.0000000   0.0000000
 NMagM=    2.7928460   2.7928460   0.0000000   2.7928460   2.7928460   0.0000000   0.0000000   0.0000000   0.0000000   2.7928460
 AtZNuc=   1.0000000   1.0000000   6.0000000   1.0000000   1.0000000   6.0000000   8.0000000   8.0000000   6.0000000   1.0000000

  Atom        31          32          33          34          35          36          37          38          39          40
 IAtWgt=           1           1          12           1           1          14           1          12          12           1
 AtmWgt=   1.0078250   1.0078250  12.0000000   1.0078250   1.0078250  14.0030740   1.0078250  12.0000000  12.0000000   1.0078250
 NucSpn=           1           1           0           1           1           2           1           0           0           1
 AtZEff=   0.0000000   0.0000000   0.0000000   0.0000000   0.0000000   0.0000000   0.0000000   0.0000000   0.0000000   0.0000000
 NQMom=    0.0000000   0.0000000   0.0000000   0.0000000   0.0000000   2.0440000   0.0000000   0.0000000   0.0000000   0.0000000
 NMagM=    2.7928460   2.7928460   0.0000000   2.7928460   2.7928460   0.4037610   2.7928460   0.0000000   0.0000000   2.7928460
 AtZNuc=   1.0000000   1.0000000   6.0000000   1.0000000   1.0000000   7.0000000   1.0000000   6.0000000   6.0000000   1.0000000

  Atom        41          42          43          44          45          46          47          48          49          50
 IAtWgt=          14          12           1          12           1           1           1          12           1           1
 AtmWgt=  14.0030740  12.0000000   1.0078250  12.0000000   1.0078250   1.0078250   1.0078250  12.0000000   1.0078250   1.0078250
 NucSpn=           2           0           1           0           1           1           1           0           1           1
 AtZEff=   0.0000000   0.0000000   0.0000000   0.0000000   0.0000000   0.0000000   0.0000000   0.0000000   0.0000000   0.0000000
 NQMom=    2.0440000   0.0000000   0.0000000   0.0000000   0.0000000   0.0000000   0.0000000   0.0000000   0.0000000   0.0000000
 NMagM=    0.4037610   0.0000000   2.7928460   0.0000000   2.7928460   2.7928460   2.7928460   0.0000000   2.7928460   2.7928460
 AtZNuc=   7.0000000   6.0000000   1.0000000   6.0000000   1.0000000   1.0000000   1.0000000   6.0000000   1.0000000   1.0000000

  Atom        51          52          53          54          55          56          57          58          59          60
 IAtWgt=          14           1          12          12           1          14          12           1          56          14
 AtmWgt=  14.0030740   1.0078250  12.0000000  12.0000000   1.0078250  14.0030740  12.0000000   1.0078250  55.9349393  14.0030740
 NucSpn=           2           1           0           0           1           2           0           1           0           2
 AtZEff=   0.0000000   0.0000000   0.0000000   0.0000000   0.0000000   0.0000000   0.0000000   0.0000000   0.0000000   0.0000000
 NQMom=    2.0440000   0.0000000   0.0000000   0.0000000   0.0000000   2.0440000   0.0000000   0.0000000   0.0000000   2.0440000
 NMagM=    0.4037610   2.7928460   0.0000000   0.0000000   2.7928460   0.4037610   0.0000000   2.7928460   0.0000000   0.4037610
 AtZNuc=   7.0000000   1.0000000   6.0000000   6.0000000   1.0000000   7.0000000   6.0000000   1.0000000  26.0000000   7.0000000

  Atom        61
 IAtWgt=          16
 AtmWgt=  15.9949146
 NucSpn=           0
 AtZEff=   0.0000000
 NQMom=    0.0000000
 NMagM=    0.0000000
 AtZNuc=   8.0000000
 Leave Link  101 at Wed Nov  4 18:23:43 2015, MaxMem=  1073741824 cpu:         1.2
 (Enter /gwfefs/opt/x86_64/gaussian/09/D.01/g09/l103.exe)

 GradGradGradGradGradGradGradGradGradGradGradGradGradGradGradGradGradGrad
 Berny optimization.
 Initialization pass.
                           ----------------------------
                           !    Initial Parameters    !
                           ! (Angstroms and Degrees)  !
 --------------------------                            --------------------------
 ! Name  Definition              Value          Derivative Info.                !
 --------------------------------------------------------------------------------
 ! X1    R(1,-1)                 7.3815         Frozen                          !
 ! Y1    R(1,-2)                 1.1468         Frozen                          !
 ! Z1    R(1,-3)                 5.034          Frozen                          !
 ! X2    R(2,-1)                 7.1284         Frozen                          !
 ! Y2    R(2,-2)                 0.2658         Frozen                          !
 ! Z2    R(2,-3)                 5.4336         Frozen                          !
 ! X3    R(3,-1)                 7.9703         Frozen                          !
 ! Y3    R(3,-2)                 0.9467         Frozen                          !
 ! Z3    R(3,-3)                 4.2513         Frozen                          !
 ! X16   R(16,-1)                7.2753         Frozen                          !
 ! Y16   R(16,-2)                3.9696         Frozen                          !
 ! Z16   R(16,-3)                0.2735         Frozen                          !
 ! X17   R(17,-1)                6.8709         Frozen                          !
 ! Y17   R(17,-2)                3.104          Frozen                          !
 ! Z17   R(17,-3)                0.5675         Frozen                          !
 ! X18   R(18,-1)                8.1016         Frozen                          !
 ! Y18   R(18,-2)                3.8243         Frozen                          !
 ! Z18   R(18,-3)               -0.2706         Frozen                          !
 ! X29   R(29,-1)                9.8549         Frozen                          !
 ! Y29   R(29,-2)                8.7775         Frozen                          !
 ! Z29   R(29,-3)               10.2367         Frozen                          !
 ! X30   R(30,-1)               10.71           Frozen                          !
 ! Y30   R(30,-2)                8.3933         Frozen                          !
 ! Z30   R(30,-3)                9.8892         Frozen                          !
 ! X31   R(31,-1)                9.3917         Frozen                          !
 ! Y31   R(31,-2)                8.1591         Frozen                          !
 ! Z31   R(31,-3)               10.8713         Frozen                          !
 ! X44   R(44,-1)                8.8089         Frozen                          !
 ! Y44   R(44,-2)                5.5921         Frozen                          !
 ! Z44   R(44,-3)               11.9769         Frozen                          !
 ! X45   R(45,-1)                9.2362         Frozen                          !
 ! Y45   R(45,-2)                6.2517         Frozen                          !
 ! Z45   R(45,-3)               11.3587         Frozen                          !
 ! X46   R(46,-1)                9.3911         Frozen                          !
 ! Y46   R(46,-2)                5.4141         Frozen                          !
 ! Z46   R(46,-3)               12.7704         Frozen                          !
 ! R1    R(1,4)                  1.0916         estimate D2E/DX2                !
 ! R2    R(1,5)                  1.5491         estimate D2E/DX2                !
 ! R3    R(5,6)                  1.0911         estimate D2E/DX2                !
 ! R4    R(5,7)                  1.0978         estimate D2E/DX2                !
 ! R5    R(5,9)                  1.5039         estimate D2E/DX2                !
 ! R6    R(8,9)                  1.3941         estimate D2E/DX2                !
 ! R7    R(8,10)                 1.3273         estimate D2E/DX2                !
 ! R8    R(8,59)                 1.9657         estimate D2E/DX2                !
 ! R9    R(9,14)                 1.3746         estimate D2E/DX2                !
 ! R10   R(10,11)                1.0781         estimate D2E/DX2                !
 ! R11   R(10,12)                1.35           estimate D2E/DX2                !
 ! R12   R(12,13)                1.0103         estimate D2E/DX2                !
 ! R13   R(12,14)                1.38           estimate D2E/DX2                !
 ! R14   R(14,15)                1.0791         estimate D2E/DX2                !
 ! R15   R(16,19)                1.0986         estimate D2E/DX2                !
 ! R16   R(16,20)                1.5333         estimate D2E/DX2                !
 ! R17   R(20,21)                1.0949         estimate D2E/DX2                !
 ! R18   R(20,22)                1.0983         estimate D2E/DX2                !
 ! R19   R(20,23)                1.5534         estimate D2E/DX2                !
 ! R20   R(23,24)                1.0941         estimate D2E/DX2                !
 ! R21   R(23,25)                1.0969         estimate D2E/DX2                !
 ! R22   R(23,26)                1.498          estimate D2E/DX2                !
 ! R23   R(26,27)                1.2849         estimate D2E/DX2                !
 ! R24   R(26,28)                1.2733         estimate D2E/DX2                !
 ! R25   R(27,59)                1.9644         estimate D2E/DX2                !
 ! R26   R(28,59)                2.044          estimate D2E/DX2                !
 ! R27   R(29,32)                1.104          estimate D2E/DX2                !
 ! R28   R(29,33)                1.534          estimate D2E/DX2                !
 ! R29   R(33,34)                1.0993         estimate D2E/DX2                !
 ! R30   R(33,35)                1.0982         estimate D2E/DX2                !
 ! R31   R(33,38)                1.4877         estimate D2E/DX2                !
 ! R32   R(36,37)                1.0112         estimate D2E/DX2                !
 ! R33   R(36,38)                1.386          estimate D2E/DX2                !
 ! R34   R(36,39)                1.3546         estimate D2E/DX2                !
 ! R35   R(38,42)                1.3636         estimate D2E/DX2                !
 ! R36   R(39,40)                1.0794         estimate D2E/DX2                !
 ! R37   R(39,41)                1.3288         estimate D2E/DX2                !
 ! R38   R(41,42)                1.3805         estimate D2E/DX2                !
 ! R39   R(41,59)                1.985          estimate D2E/DX2                !
 ! R40   R(42,43)                1.0754         estimate D2E/DX2                !
 ! R41   R(44,47)                1.098          estimate D2E/DX2                !
 ! R42   R(44,48)                1.5527         estimate D2E/DX2                !
 ! R43   R(48,49)                1.0976         estimate D2E/DX2                !
 ! R44   R(48,50)                1.0957         estimate D2E/DX2                !
 ! R45   R(48,53)                1.4976         estimate D2E/DX2                !
 ! R46   R(51,52)                1.0112         estimate D2E/DX2                !
 ! R47   R(51,53)                1.3868         estimate D2E/DX2                !
 ! R48   R(51,54)                1.3579         estimate D2E/DX2                !
 ! R49   R(53,57)                1.3712         estimate D2E/DX2                !
 ! R50   R(54,55)                1.0805         estimate D2E/DX2                !
 ! R51   R(54,56)                1.3248         estimate D2E/DX2                !
 ! R52   R(56,57)                1.385          estimate D2E/DX2                !
 ! R53   R(56,59)                2.0396         estimate D2E/DX2                !
 ! R54   R(57,58)                1.0793         estimate D2E/DX2                !
 ! R55   R(59,60)                2.11           estimate D2E/DX2                !
 ! R56   R(60,61)                1.0608         estimate D2E/DX2                !
 ! A1    A(2,1,4)              111.3939         estimate D2E/DX2                !
 ! A2    A(2,1,5)              108.0171         estimate D2E/DX2                !
 ! A3    A(3,1,4)              109.6512         estimate D2E/DX2                !
 ! A4    A(3,1,5)              109.8561         estimate D2E/DX2                !
 ! A5    A(4,1,5)              111.2032         estimate D2E/DX2                !
 ! A6    A(1,5,6)              109.6771         estimate D2E/DX2                !
 ! A7    A(1,5,7)              108.3366         estimate D2E/DX2                !
 ! A8    A(1,5,9)              115.3665         estimate D2E/DX2                !
 ! A9    A(6,5,7)              106.6351         estimate D2E/DX2                !
 ! A10   A(6,5,9)              109.3021         estimate D2E/DX2                !
 ! A11   A(7,5,9)              107.1417         estimate D2E/DX2                !
 ! A12   A(9,8,10)             107.4969         estimate D2E/DX2                !
 ! A13   A(9,8,59)             130.4921         estimate D2E/DX2                !
 ! A14   A(10,8,59)            121.5899         estimate D2E/DX2                !
 ! A15   A(5,9,8)              125.1077         estimate D2E/DX2                !
 ! A16   A(5,9,14)             127.2743         estimate D2E/DX2                !
 ! A17   A(8,9,14)             107.6169         estimate D2E/DX2                !
 ! A18   A(8,10,11)            125.3942         estimate D2E/DX2                !
 ! A19   A(8,10,12)            110.0703         estimate D2E/DX2                !
 ! A20   A(11,10,12)           124.5291         estimate D2E/DX2                !
 ! A21   A(10,12,13)           125.6814         estimate D2E/DX2                !
 ! A22   A(10,12,14)           108.0671         estimate D2E/DX2                !
 ! A23   A(13,12,14)           126.251          estimate D2E/DX2                !
 ! A24   A(9,14,12)            106.7446         estimate D2E/DX2                !
 ! A25   A(9,14,15)            131.1339         estimate D2E/DX2                !
 ! A26   A(12,14,15)           122.1213         estimate D2E/DX2                !
 ! A27   A(17,16,19)           107.3632         estimate D2E/DX2                !
 ! A28   A(17,16,20)           104.5931         estimate D2E/DX2                !
 ! A29   A(18,16,19)           107.4332         estimate D2E/DX2                !
 ! A30   A(18,16,20)           115.5084         estimate D2E/DX2                !
 ! A31   A(19,16,20)           110.0614         estimate D2E/DX2                !
 ! A32   A(16,20,21)           112.9473         estimate D2E/DX2                !
 ! A33   A(16,20,22)           108.9955         estimate D2E/DX2                !
 ! A34   A(16,20,23)           109.0551         estimate D2E/DX2                !
 ! A35   A(21,20,22)           106.8111         estimate D2E/DX2                !
 ! A36   A(21,20,23)           109.8227         estimate D2E/DX2                !
 ! A37   A(22,20,23)           109.1299         estimate D2E/DX2                !
 ! A38   A(20,23,24)           110.6958         estimate D2E/DX2                !
 ! A39   A(20,23,25)           109.7811         estimate D2E/DX2                !
 ! A40   A(20,23,26)           111.1543         estimate D2E/DX2                !
 ! A41   A(24,23,25)           107.8021         estimate D2E/DX2                !
 ! A42   A(24,23,26)           107.9811         estimate D2E/DX2                !
 ! A43   A(25,23,26)           109.3432         estimate D2E/DX2                !
 ! A44   A(23,26,27)           119.9026         estimate D2E/DX2                !
 ! A45   A(23,26,28)           122.9461         estimate D2E/DX2                !
 ! A46   A(27,26,28)           116.9575         estimate D2E/DX2                !
 ! A47   A(26,27,59)            89.927          estimate D2E/DX2                !
 ! A48   A(26,28,59)            86.7402         estimate D2E/DX2                !
 ! A49   A(30,29,32)           102.1895         estimate D2E/DX2                !
 ! A50   A(30,29,33)           115.0453         estimate D2E/DX2                !
 ! A51   A(31,29,32)           101.3962         estimate D2E/DX2                !
 ! A52   A(31,29,33)           118.9075         estimate D2E/DX2                !
 ! A53   A(32,29,33)           103.9726         estimate D2E/DX2                !
 ! A54   A(29,33,34)           109.186          estimate D2E/DX2                !
 ! A55   A(29,33,35)           108.0759         estimate D2E/DX2                !
 ! A56   A(29,33,38)           114.4965         estimate D2E/DX2                !
 ! A57   A(34,33,35)           105.6498         estimate D2E/DX2                !
 ! A58   A(34,33,38)           109.8025         estimate D2E/DX2                !
 ! A59   A(35,33,38)           109.245          estimate D2E/DX2                !
 ! A60   A(37,36,38)           126.038          estimate D2E/DX2                !
 ! A61   A(37,36,39)           125.327          estimate D2E/DX2                !
 ! A62   A(38,36,39)           108.6347         estimate D2E/DX2                !
 ! A63   A(33,38,36)           124.6616         estimate D2E/DX2                !
 ! A64   A(33,38,42)           130.365          estimate D2E/DX2                !
 ! A65   A(36,38,42)           104.9527         estimate D2E/DX2                !
 ! A66   A(36,39,40)           125.1045         estimate D2E/DX2                !
 ! A67   A(36,39,41)           109.8297         estimate D2E/DX2                !
 ! A68   A(40,39,41)           125.0648         estimate D2E/DX2                !
 ! A69   A(39,41,42)           106.489          estimate D2E/DX2                !
 ! A70   A(39,41,59)           120.7801         estimate D2E/DX2                !
 ! A71   A(42,41,59)           131.8039         estimate D2E/DX2                !
 ! A72   A(38,42,41)           110.0907         estimate D2E/DX2                !
 ! A73   A(38,42,43)           128.1159         estimate D2E/DX2                !
 ! A74   A(41,42,43)           121.7885         estimate D2E/DX2                !
 ! A75   A(45,44,47)           107.6666         estimate D2E/DX2                !
 ! A76   A(45,44,48)           112.2718         estimate D2E/DX2                !
 ! A77   A(46,44,47)           107.6815         estimate D2E/DX2                !
 ! A78   A(46,44,48)           107.8421         estimate D2E/DX2                !
 ! A79   A(47,44,48)           110.2486         estimate D2E/DX2                !
 ! A80   A(44,48,49)           109.1569         estimate D2E/DX2                !
 ! A81   A(44,48,50)           109.1536         estimate D2E/DX2                !
 ! A82   A(44,48,53)           114.6528         estimate D2E/DX2                !
 ! A83   A(49,48,50)           105.9134         estimate D2E/DX2                !
 ! A84   A(49,48,53)           110.1851         estimate D2E/DX2                !
 ! A85   A(50,48,53)           107.402          estimate D2E/DX2                !
 ! A86   A(52,51,53)           125.9209         estimate D2E/DX2                !
 ! A87   A(52,51,54)           125.3113         estimate D2E/DX2                !
 ! A88   A(53,51,54)           108.7091         estimate D2E/DX2                !
 ! A89   A(48,53,51)           124.4495         estimate D2E/DX2                !
 ! A90   A(48,53,57)           130.9576         estimate D2E/DX2                !
 ! A91   A(51,53,57)           104.3779         estimate D2E/DX2                !
 ! A92   A(51,54,55)           123.6582         estimate D2E/DX2                !
 ! A93   A(51,54,56)           110.3934         estimate D2E/DX2                !
 ! A94   A(55,54,56)           125.9484         estimate D2E/DX2                !
 ! A95   A(54,56,57)           105.9197         estimate D2E/DX2                !
 ! A96   A(54,56,59)           126.2473         estimate D2E/DX2                !
 ! A97   A(57,56,59)           123.9753         estimate D2E/DX2                !
 ! A98   A(53,57,56)           110.5676         estimate D2E/DX2                !
 ! A99   A(53,57,58)           128.3321         estimate D2E/DX2                !
 ! A100  A(56,57,58)           121.072          estimate D2E/DX2                !
 ! A101  A(8,59,27)             92.3881         estimate D2E/DX2                !
 ! A102  A(8,59,28)             91.0677         estimate D2E/DX2                !
 ! A103  A(8,59,41)            100.9082         estimate D2E/DX2                !
 ! A104  A(8,59,56)             95.7289         estimate D2E/DX2                !
 ! A105  A(27,59,28)            65.8829         estimate D2E/DX2                !
 ! A106  A(27,59,41)            91.8652         estimate D2E/DX2                !
 ! A107  A(27,59,60)            87.6119         estimate D2E/DX2                !
 ! A108  A(28,59,41)           155.2922         estimate D2E/DX2                !
 ! A109  A(28,59,56)           110.1914         estimate D2E/DX2                !
 ! A110  A(28,59,60)            88.9323         estimate D2E/DX2                !
 ! A111  A(41,59,56)            90.2052         estimate D2E/DX2                !
 ! A112  A(41,59,60)            79.0918         estimate D2E/DX2                !
 ! A113  A(56,59,60)            84.2711         estimate D2E/DX2                !
 ! A114  A(59,60,61)           151.01           estimate D2E/DX2                !
 ! A115  L(8,59,60,27,-1)      180.0            estimate D2E/DX2                !
 ! A116  L(27,59,56,8,-1)      188.117          estimate D2E/DX2                !
 ! A117  L(8,59,60,27,-2)      180.0            estimate D2E/DX2                !
 ! A118  L(27,59,56,8,-2)      183.6799         estimate D2E/DX2                !
 ! D1    D(2,1,5,6)            -78.9068         estimate D2E/DX2                !
 ! D2    D(2,1,5,7)             37.1212         estimate D2E/DX2                !
 ! D3    D(2,1,5,9)            157.1721         estimate D2E/DX2                !
 ! D4    D(3,1,5,6)            165.1892         estimate D2E/DX2                !
 ! D5    D(3,1,5,7)            -78.7828         estimate D2E/DX2                !
 ! D6    D(3,1,5,9)             41.2681         estimate D2E/DX2                !
 ! D7    D(4,1,5,6)             43.6147         estimate D2E/DX2                !
 ! D8    D(4,1,5,7)            159.6427         estimate D2E/DX2                !
 ! D9    D(4,1,5,9)            -80.3065         estimate D2E/DX2                !
 ! D10   D(1,5,9,8)            101.2587         estimate D2E/DX2                !
 ! D11   D(1,5,9,14)           -79.1671         estimate D2E/DX2                !
 ! D12   D(6,5,9,8)            -22.859          estimate D2E/DX2                !
 ! D13   D(6,5,9,14)           156.7152         estimate D2E/DX2                !
 ! D14   D(7,5,9,8)           -138.0382         estimate D2E/DX2                !
 ! D15   D(7,5,9,14)            41.5359         estimate D2E/DX2                !
 ! D16   D(10,8,9,5)          -179.697          estimate D2E/DX2                !
 ! D17   D(10,8,9,14)            0.6585         estimate D2E/DX2                !
 ! D18   D(59,8,9,5)            -7.2217         estimate D2E/DX2                !
 ! D19   D(59,8,9,14)          173.1338         estimate D2E/DX2                !
 ! D20   D(9,8,10,11)          178.6059         estimate D2E/DX2                !
 ! D21   D(9,8,10,12)           -0.5082         estimate D2E/DX2                !
 ! D22   D(59,8,10,11)           5.3199         estimate D2E/DX2                !
 ! D23   D(59,8,10,12)        -173.7942         estimate D2E/DX2                !
 ! D24   D(9,8,59,27)         -119.6785         estimate D2E/DX2                !
 ! D25   D(9,8,59,28)          -53.7735         estimate D2E/DX2                !
 ! D26   D(9,8,59,41)          147.9595         estimate D2E/DX2                !
 ! D27   D(9,8,59,56)           56.6416         estimate D2E/DX2                !
 ! D28   D(10,8,59,27)          51.8904         estimate D2E/DX2                !
 ! D29   D(10,8,59,28)         117.7954         estimate D2E/DX2                !
 ! D30   D(10,8,59,41)         -40.4717         estimate D2E/DX2                !
 ! D31   D(10,8,59,56)        -131.7895         estimate D2E/DX2                !
 ! D32   D(9,8,60,61)         -170.8335         estimate D2E/DX2                !
 ! D33   D(10,8,60,61)           0.7354         estimate D2E/DX2                !
 ! D34   D(5,9,14,12)          179.8122         estimate D2E/DX2                !
 ! D35   D(5,9,14,15)           -0.3268         estimate D2E/DX2                !
 ! D36   D(8,9,14,12)           -0.5533         estimate D2E/DX2                !
 ! D37   D(8,9,14,15)          179.3077         estimate D2E/DX2                !
 ! D38   D(8,10,12,13)         179.9219         estimate D2E/DX2                !
 ! D39   D(8,10,12,14)           0.1637         estimate D2E/DX2                !
 ! D40   D(11,10,12,13)          0.7985         estimate D2E/DX2                !
 ! D41   D(11,10,12,14)       -178.9597         estimate D2E/DX2                !
 ! D42   D(10,12,14,9)           0.2525         estimate D2E/DX2                !
 ! D43   D(10,12,14,15)       -179.6239         estimate D2E/DX2                !
 ! D44   D(13,12,14,9)        -179.5039         estimate D2E/DX2                !
 ! D45   D(13,12,14,15)          0.6196         estimate D2E/DX2                !
 ! D46   D(17,16,20,21)       -174.5476         estimate D2E/DX2                !
 ! D47   D(17,16,20,22)         66.9036         estimate D2E/DX2                !
 ! D48   D(17,16,20,23)        -52.1467         estimate D2E/DX2                !
 ! D49   D(18,16,20,21)         62.3464         estimate D2E/DX2                !
 ! D50   D(18,16,20,22)        -56.2024         estimate D2E/DX2                !
 ! D51   D(18,16,20,23)       -175.2527         estimate D2E/DX2                !
 ! D52   D(19,16,20,21)        -59.5            estimate D2E/DX2                !
 ! D53   D(19,16,20,22)       -178.0488         estimate D2E/DX2                !
 ! D54   D(19,16,20,23)         62.9009         estimate D2E/DX2                !
 ! D55   D(16,20,23,24)         36.4701         estimate D2E/DX2                !
 ! D56   D(16,20,23,25)        -82.4235         estimate D2E/DX2                !
 ! D57   D(16,20,23,26)        156.472          estimate D2E/DX2                !
 ! D58   D(21,20,23,24)        160.7319         estimate D2E/DX2                !
 ! D59   D(21,20,23,25)         41.8383         estimate D2E/DX2                !
 ! D60   D(21,20,23,26)        -79.2662         estimate D2E/DX2                !
 ! D61   D(22,20,23,24)        -82.4964         estimate D2E/DX2                !
 ! D62   D(22,20,23,25)        158.61           estimate D2E/DX2                !
 ! D63   D(22,20,23,26)         37.5055         estimate D2E/DX2                !
 ! D64   D(20,23,26,27)         58.4929         estimate D2E/DX2                !
 ! D65   D(20,23,26,28)       -116.2907         estimate D2E/DX2                !
 ! D66   D(24,23,26,27)       -179.9068         estimate D2E/DX2                !
 ! D67   D(24,23,26,28)          5.3095         estimate D2E/DX2                !
 ! D68   D(25,23,26,27)        -62.8682         estimate D2E/DX2                !
 ! D69   D(25,23,26,28)        122.3482         estimate D2E/DX2                !
 ! D70   D(23,26,27,59)       -168.2312         estimate D2E/DX2                !
 ! D71   D(28,26,27,59)          6.8585         estimate D2E/DX2                !
 ! D72   D(23,26,28,59)        168.3265         estimate D2E/DX2                !
 ! D73   D(27,26,28,59)         -6.6007         estimate D2E/DX2                !
 ! D74   D(26,27,59,8)          85.935          estimate D2E/DX2                !
 ! D75   D(26,27,59,28)         -4.166          estimate D2E/DX2                !
 ! D76   D(26,27,59,41)       -173.062          estimate D2E/DX2                !
 ! D77   D(26,27,59,60)        -94.065          estimate D2E/DX2                !
 ! D78   D(26,28,59,8)         -87.9277         estimate D2E/DX2                !
 ! D79   D(26,28,59,27)          4.211          estimate D2E/DX2                !
 ! D80   D(26,28,59,41)         31.6307         estimate D2E/DX2                !
 ! D81   D(26,28,59,56)        175.5708         estimate D2E/DX2                !
 ! D82   D(26,28,59,60)         92.0723         estimate D2E/DX2                !
 ! D83   D(30,29,33,34)       -173.6588         estimate D2E/DX2                !
 ! D84   D(30,29,33,35)        -59.2012         estimate D2E/DX2                !
 ! D85   D(30,29,33,38)         62.7864         estimate D2E/DX2                !
 ! D86   D(31,29,33,34)         48.9378         estimate D2E/DX2                !
 ! D87   D(31,29,33,35)        163.3954         estimate D2E/DX2                !
 ! D88   D(31,29,33,38)        -74.617          estimate D2E/DX2                !
 ! D89   D(32,29,33,34)        -62.7776         estimate D2E/DX2                !
 ! D90   D(32,29,33,35)         51.68           estimate D2E/DX2                !
 ! D91   D(32,29,33,38)        173.6676         estimate D2E/DX2                !
 ! D92   D(29,33,38,36)       -162.7112         estimate D2E/DX2                !
 ! D93   D(29,33,38,42)         19.202          estimate D2E/DX2                !
 ! D94   D(34,33,38,36)         74.0652         estimate D2E/DX2                !
 ! D95   D(34,33,38,42)       -104.0217         estimate D2E/DX2                !
 ! D96   D(35,33,38,36)        -41.3636         estimate D2E/DX2                !
 ! D97   D(35,33,38,42)        140.5495         estimate D2E/DX2                !
 ! D98   D(37,36,38,33)          1.8175         estimate D2E/DX2                !
 ! D99   D(37,36,38,42)       -179.6912         estimate D2E/DX2                !
 ! D100  D(39,36,38,33)       -178.3648         estimate D2E/DX2                !
 ! D101  D(39,36,38,42)          0.1265         estimate D2E/DX2                !
 ! D102  D(37,36,39,40)          0.409          estimate D2E/DX2                !
 ! D103  D(37,36,39,41)       -179.939          estimate D2E/DX2                !
 ! D104  D(38,36,39,40)       -179.4103         estimate D2E/DX2                !
 ! D105  D(38,36,39,41)          0.2417         estimate D2E/DX2                !
 ! D106  D(33,38,42,41)        177.9325         estimate D2E/DX2                !
 ! D107  D(33,38,42,43)         -1.258          estimate D2E/DX2                !
 ! D108  D(36,38,42,41)         -0.4388         estimate D2E/DX2                !
 ! D109  D(36,38,42,43)       -179.6293         estimate D2E/DX2                !
 ! D110  D(36,39,41,42)         -0.5034         estimate D2E/DX2                !
 ! D111  D(36,39,41,59)        169.7163         estimate D2E/DX2                !
 ! D112  D(40,39,41,42)        179.1488         estimate D2E/DX2                !
 ! D113  D(40,39,41,59)        -10.6316         estimate D2E/DX2                !
 ! D114  D(39,41,42,38)          0.5919         estimate D2E/DX2                !
 ! D115  D(39,41,42,43)        179.8426         estimate D2E/DX2                !
 ! D116  D(59,41,42,38)       -168.1176         estimate D2E/DX2                !
 ! D117  D(59,41,42,43)         11.133          estimate D2E/DX2                !
 ! D118  D(39,41,59,8)         112.9333         estimate D2E/DX2                !
 ! D119  D(39,41,59,27)         20.14           estimate D2E/DX2                !
 ! D120  D(39,41,59,28)         -4.7282         estimate D2E/DX2                !
 ! D121  D(39,41,59,56)       -151.1922         estimate D2E/DX2                !
 ! D122  D(39,41,59,60)        -67.0667         estimate D2E/DX2                !
 ! D123  D(42,41,59,8)         -79.6883         estimate D2E/DX2                !
 ! D124  D(42,41,59,27)       -172.4816         estimate D2E/DX2                !
 ! D125  D(42,41,59,28)        162.6502         estimate D2E/DX2                !
 ! D126  D(42,41,59,56)         16.1862         estimate D2E/DX2                !
 ! D127  D(42,41,59,60)        100.3117         estimate D2E/DX2                !
 ! D128  D(45,44,48,49)       -179.0219         estimate D2E/DX2                !
 ! D129  D(45,44,48,50)         65.642          estimate D2E/DX2                !
 ! D130  D(45,44,48,53)        -54.8726         estimate D2E/DX2                !
 ! D131  D(46,44,48,49)         58.331          estimate D2E/DX2                !
 ! D132  D(46,44,48,50)        -57.0051         estimate D2E/DX2                !
 ! D133  D(46,44,48,53)       -177.5197         estimate D2E/DX2                !
 ! D134  D(47,44,48,49)        -58.9804         estimate D2E/DX2                !
 ! D135  D(47,44,48,50)       -174.3165         estimate D2E/DX2                !
 ! D136  D(47,44,48,53)         65.1689         estimate D2E/DX2                !
 ! D137  D(44,48,53,51)        -74.5981         estimate D2E/DX2                !
 ! D138  D(44,48,53,57)         99.2108         estimate D2E/DX2                !
 ! D139  D(49,48,53,51)         49.0037         estimate D2E/DX2                !
 ! D140  D(49,48,53,57)       -137.1874         estimate D2E/DX2                !
 ! D141  D(50,48,53,51)        163.9243         estimate D2E/DX2                !
 ! D142  D(50,48,53,57)        -22.2669         estimate D2E/DX2                !
 ! D143  D(52,51,53,48)         -8.0346         estimate D2E/DX2                !
 ! D144  D(52,51,53,57)        176.7884         estimate D2E/DX2                !
 ! D145  D(54,51,53,48)        174.641          estimate D2E/DX2                !
 ! D146  D(54,51,53,57)         -0.536          estimate D2E/DX2                !
 ! D147  D(52,51,54,55)          2.0869         estimate D2E/DX2                !
 ! D148  D(52,51,54,56)       -177.9771         estimate D2E/DX2                !
 ! D149  D(53,51,54,55)        179.4316         estimate D2E/DX2                !
 ! D150  D(53,51,54,56)         -0.6324         estimate D2E/DX2                !
 ! D151  D(48,53,57,56)       -173.2496         estimate D2E/DX2                !
 ! D152  D(48,53,57,58)          4.8047         estimate D2E/DX2                !
 ! D153  D(51,53,57,56)          1.4828         estimate D2E/DX2                !
 ! D154  D(51,53,57,58)        179.537          estimate D2E/DX2                !
 ! D155  D(51,54,56,57)          1.5139         estimate D2E/DX2                !
 ! D156  D(51,54,56,59)       -156.8729         estimate D2E/DX2                !
 ! D157  D(55,54,56,57)       -178.552          estimate D2E/DX2                !
 ! D158  D(55,54,56,59)         23.0612         estimate D2E/DX2                !
 ! D159  D(54,56,57,53)         -1.8854         estimate D2E/DX2                !
 ! D160  D(54,56,57,58)        179.8965         estimate D2E/DX2                !
 ! D161  D(59,56,57,53)        157.1243         estimate D2E/DX2                !
 ! D162  D(59,56,57,58)        -21.0938         estimate D2E/DX2                !
 ! D163  D(54,56,59,8)        -169.9409         estimate D2E/DX2                !
 ! D164  D(54,56,59,28)        -76.682          estimate D2E/DX2                !
 ! D165  D(54,56,59,41)         89.0744         estimate D2E/DX2                !
 ! D166  D(54,56,59,60)         10.0591         estimate D2E/DX2                !
 ! D167  D(57,56,59,8)          35.3448         estimate D2E/DX2                !
 ! D168  D(57,56,59,28)        128.6037         estimate D2E/DX2                !
 ! D169  D(57,56,59,41)        -65.6398         estimate D2E/DX2                !
 ! D170  D(57,56,59,60)       -144.6552         estimate D2E/DX2                !
 ! D171  D(27,59,60,61)        -51.155          estimate D2E/DX2                !
 ! D172  D(28,59,60,61)       -117.06           estimate D2E/DX2                !
 ! D173  D(41,59,60,61)         41.207          estimate D2E/DX2                !
 ! D174  D(56,59,60,61)        132.5249         estimate D2E/DX2                !
 --------------------------------------------------------------------------------
 Trust Radius=3.00D-01 FncErr=1.00D-07 GrdErr=1.00D-06
 Number of steps in this run=    366 maximum allowed number of steps=    366.
 GradGradGradGradGradGradGradGradGradGradGradGradGradGradGradGradGradGrad

 Leave Link  103 at Wed Nov  4 18:23:44 2015, MaxMem=  1073741824 cpu:         0.2
 (Enter /gwfefs/opt/x86_64/gaussian/09/D.01/g09/l202.exe)
 Symmetry turned off by external request.
 Stoichiometry    C19H31FeN7O3(1+,2)
 Framework group  C1[X(C19H31FeN7O3)]
 Deg. of freedom   177
 Full point group                 C1      NOp   1
                          Input orientation:                          
 ---------------------------------------------------------------------
 Center     Atomic      Atomic             Coordinates (Angstroms)
 Number     Number       Type             X           Y           Z
 ---------------------------------------------------------------------
      1          6           0        7.381490    1.146756    5.034035
      2          1           0        7.128409    0.265815    5.433638
      3          1           0        7.970276    0.946709    4.251289
      4          1           0        6.501759    1.699814    4.699779
      5          6           0        8.174483    1.945581    6.098379
      6          1           0        7.482637    2.386288    6.817793
      7          1           0        8.805079    1.242920    6.658611
      8          7           0        8.787436    4.381456    5.543969
      9          6           0        9.078953    3.018290    5.557133
     10          6           0        9.817902    5.004541    4.985664
     11          1           0        9.885894    6.066312    4.811594
     12          7           0       10.770684    4.110770    4.645337
     13          1           0       11.652774    4.329144    4.203872
     14          6           0       10.325077    2.853969    5.000749
     15          1           0       10.917029    1.967167    4.834810
     16          6           0        7.275349    3.969630    0.273471
     17          1           0        6.870906    3.103992    0.567512
     18          1           0        8.101580    3.824348   -0.270644
     19          1           0        6.541132    4.472452   -0.370817
     20          6           0        7.469770    4.765232    1.569691
     21          1           0        7.822781    5.786755    1.394692
     22          1           0        8.231465    4.266836    2.184215
     23          6           0        6.127388    4.798320    2.350613
     24          1           0        5.593469    3.849542    2.242133
     25          1           0        5.484800    5.592373    1.950815
     26          6           0        6.357680    5.034923    3.811789
     27          8           0        6.970481    6.095404    4.200202
     28          8           0        6.057658    4.180934    4.707287
     29          6           0        9.854882    8.777518   10.236727
     30          1           0       10.710006    8.393294    9.889197
     31          1           0        9.391663    8.159145   10.871300
     32          1           0       10.214584    9.564430   10.922425
     33          6           0        9.018510    9.541513    9.202362
     34          1           0        8.165022   10.015970    9.707167
     35          1           0        9.629034   10.367322    8.813317
     36          7           0        8.068813    9.218117    6.862853
     37          1           0        8.026376   10.194947    6.604918
     38          6           0        8.534504    8.711970    8.066190
     39          6           0        7.680003    8.183592    6.079641
     40          1           0        7.282586    8.276703    5.080394
     41          7           0        7.867990    7.035949    6.722596
     42          6           0        8.405594    7.359268    7.952357
     43          1           0        8.653383    6.605434    8.678186
     44          6           0        8.808877    5.592090   11.976889
     45          1           0        9.236224    6.251680   11.358695
     46          1           0        9.391110    5.414131   12.770417
     47          1           0        7.873321    6.035695   12.342463
     48          6           0        8.523670    4.233251   11.281773
     49          1           0        8.040737    3.556481   11.998335
     50          1           0        9.474877    3.759263   11.014994
     51          7           0        6.340374    4.573034   10.003621
     52          1           0        5.725861    4.597005   10.806283
     53          6           0        7.705613    4.330903   10.031120
     54          6           0        5.949158    4.715144    8.711066
     55          1           0        4.928092    4.902949    8.411611
     56          7           0        6.987978    4.592051    7.898110
     57          6           0        8.077470    4.327457    8.711267
     58          1           0        9.061692    4.180461    8.293500
     59         26           0        7.132896    5.337435    6.005158
     60          7           0        5.356925    6.363576    6.500195
     61          8           0        4.775932    7.250547    6.532226
 ---------------------------------------------------------------------
 Rotational constants (GHZ):      0.2076944      0.1131387      0.0983513
 Leave Link  202 at Wed Nov  4 18:23:44 2015, MaxMem=  1073741824 cpu:         2.0
 (Enter /gwfefs/opt/x86_64/gaussian/09/D.01/g09/l301.exe)
 General basis read from cards:  (5D, 7F)
 Centers:       1      5      9     10     14     16     20     23     26     29
 Centers:      33     38     39     42     44     48     53     54     57      8
 Centers:      12     36     41     51     56     60     27     28     61      2
 Centers:       3      4      6      7     11     13     15     17     18     19
 Centers:      21     22     24     25     30     31     32     34     35     37
 Centers:      40     43     45     46     47     49     50     52     55     58
 6-31G(d)
 ****
 Centers:      59
 Lanl2dz
 ****
 ======================================================================================================
                                       Pseudopotential Parameters
 ======================================================================================================
  Center     Atomic      Valence      Angular      Power
  Number     Number     Electrons     Momentum     of R      Exponent        Coefficient   SO-Coeffient
 ======================================================================================================
    1          6
                                   No pseudopotential on this center.
    2          1
                                   No pseudopotential on this center.
    3          1
                                   No pseudopotential on this center.
    4          1
                                   No pseudopotential on this center.
    5          6
                                   No pseudopotential on this center.
    6          1
                                   No pseudopotential on this center.
    7          1
                                   No pseudopotential on this center.
    8          7
                                   No pseudopotential on this center.
    9          6
                                   No pseudopotential on this center.
   10          6
                                   No pseudopotential on this center.
   11          1
                                   No pseudopotential on this center.
   12          7
                                   No pseudopotential on this center.
   13          1
                                   No pseudopotential on this center.
   14          6
                                   No pseudopotential on this center.
   15          1
                                   No pseudopotential on this center.
   16          6
                                   No pseudopotential on this center.
   17          1
                                   No pseudopotential on this center.
   18          1
                                   No pseudopotential on this center.
   19          1
                                   No pseudopotential on this center.
   20          6
                                   No pseudopotential on this center.
   21          1
                                   No pseudopotential on this center.
   22          1
                                   No pseudopotential on this center.
   23          6
                                   No pseudopotential on this center.
   24          1
                                   No pseudopotential on this center.
   25          1
                                   No pseudopotential on this center.
   26          6
                                   No pseudopotential on this center.
   27          8
                                   No pseudopotential on this center.
   28          8
                                   No pseudopotential on this center.
   29          6
                                   No pseudopotential on this center.
   30          1
                                   No pseudopotential on this center.
   31          1
                                   No pseudopotential on this center.
   32          1
                                   No pseudopotential on this center.
   33          6
                                   No pseudopotential on this center.
   34          1
                                   No pseudopotential on this center.
   35          1
                                   No pseudopotential on this center.
   36          7
                                   No pseudopotential on this center.
   37          1
                                   No pseudopotential on this center.
   38          6
                                   No pseudopotential on this center.
   39          6
                                   No pseudopotential on this center.
   40          1
                                   No pseudopotential on this center.
   41          7
                                   No pseudopotential on this center.
   42          6
                                   No pseudopotential on this center.
   43          1
                                   No pseudopotential on this center.
   44          6
                                   No pseudopotential on this center.
   45          1
                                   No pseudopotential on this center.
   46          1
                                   No pseudopotential on this center.
   47          1
                                   No pseudopotential on this center.
   48          6
                                   No pseudopotential on this center.
   49          1
                                   No pseudopotential on this center.
   50          1
                                   No pseudopotential on this center.
   51          7
                                   No pseudopotential on this center.
   52          1
                                   No pseudopotential on this center.
   53          6
                                   No pseudopotential on this center.
   54          6
                                   No pseudopotential on this center.
   55          1
                                   No pseudopotential on this center.
   56          7
                                   No pseudopotential on this center.
   57          6
                                   No pseudopotential on this center.
   58          1
                                   No pseudopotential on this center.
   59         26           16
                                      D and up 
                                                     1      392.6149787      -10.00000000    0.00000000
                                                     2       71.1756979      -63.26675180    0.00000000
                                                     2       17.7320281      -10.96133380    0.00000000
                                      S - D
                                                     0      126.0571895        3.00000000    0.00000000
                                                     1      138.1264251       18.17291370    0.00000000
                                                     2       54.2098858      339.12311640    0.00000000
                                                     2        9.2837966      317.10680120    0.00000000
                                                     2        8.6289082     -207.34216490    0.00000000
                                      P - D
                                                     0       83.1759490        5.00000000    0.00000000
                                                     1      106.0559938        5.95359300    0.00000000
                                                     2       42.8284937      294.26655270    0.00000000
                                                     2        8.7701805      154.42446350    0.00000000
                                                     2        8.0397818      -95.31642490    0.00000000
   60          7
                                   No pseudopotential on this center.
   61          8
                                   No pseudopotential on this center.
 ======================================================================================================
 Ernie: Thresh=  0.10000D-02 Tol=  0.10000D-05 Strict=F.
 Ernie:  1 primitive shells out of 461 were deleted.
   490 basis functions,   988 primitive gaussians,   521 cartesian basis functions
   117 alpha electrons      116 beta electrons
       nuclear repulsion energy      3534.2134181348 Hartrees.
 IExCor=  402 DFT=T Ex+Corr=B3LYP ExCW=0 ScaHFX=  0.200000
 ScaDFX=  0.800000  0.720000  1.000000  0.810000 ScalE2=  1.000000  1.000000
 IRadAn=      0 IRanWt=     -1 IRanGd=            0 ICorTp=0 IEmpDi=  4
 NAtoms=   61 NActive=   61 NUniq=   61 SFac= 1.00D+00 NAtFMM=   60 NAOKFM=T Big=T
 Integral buffers will be    131072 words long.
 Raffenetti 2 integral format.
 Two-electron integral symmetry is turned off.
 Leave Link  301 at Wed Nov  4 18:23:45 2015, MaxMem=  1073741824 cpu:         1.4
 (Enter /gwfefs/opt/x86_64/gaussian/09/D.01/g09/l302.exe)
 NPDir=0 NMtPBC=     1 NCelOv=     1 NCel=       1 NClECP=     1 NCelD=      1
         NCelK=      1 NCelE2=     1 NClLst=     1 CellRange=     0.0.
 One-electron integrals computed using PRISM.
   1 Symmetry operations used in ECPInt.
 ECPInt:  NShTT=   17391 NPrTT=  106660 LenC2=   14598 LenP2D=   48358.
 LDataN:  DoStor=T MaxTD1= 4 Len=   56
 NBasis=   490 RedAO= T EigKep=  1.11D-03  NBF=   490
 NBsUse=   490 1.00D-06 EigRej= -1.00D+00 NBFU=   490
 Precomputing XC quadrature grid using
 IXCGrd= 4 IRadAn=           0 IRanWt=          -1 IRanGd=           0 AccXCQ= 0.00D+00.
 Generated NRdTot=       0 NPtTot=           0 NUsed=           0 NTot=          32
 NSgBfM=   514   514   514   514   514 MxSgAt=    61 MxSgA2=    61.
 Leave Link  302 at Wed Nov  4 18:23:46 2015, MaxMem=  1073741824 cpu:        12.8
 (Enter /gwfefs/opt/x86_64/gaussian/09/D.01/g09/l303.exe)
 DipDrv:  MaxL=1.
 Leave Link  303 at Wed Nov  4 18:23:47 2015, MaxMem=  1073741824 cpu:         2.9
 (Enter /gwfefs/opt/x86_64/gaussian/09/D.01/g09/l401.exe)
 ExpMin= 2.20D-02 ExpMax= 5.48D+03 ExpMxC= 8.25D+02 IAcc=3 IRadAn=         5 AccDes= 0.00D+00
 Harris functional with IExCor=  402 and IRadAn=       5 diagonalized for initial guess.
 HarFok:  IExCor=  402 AccDes= 0.00D+00 IRadAn=         5 IDoV= 1 UseB2=F ITyADJ=14
 ICtDFT=  3500011 ScaDFX=  1.000000  1.000000  1.000000  1.000000
 FoFCou: FMM=F IPFlag=           0 FMFlag=      100000 FMFlg1=        2001
         NFxFlg=           0 DoJE=T BraDBF=F KetDBF=T FulRan=T
         wScrn=  0.000000 ICntrl=     500 IOpCl=  0 I1Cent=   200000004 NGrid=           0
         NMat0=    1 NMatS0=      1 NMatT0=    0 NMatD0=    1 NMtDS0=    0 NMtDT0=    0
 Symmetry not used in FoFCou.
 Harris En= -1474.84063469103    
 JPrj=0 DoOrth=F DoCkMO=F.
 Initial guess <Sx>= 0.0000 <Sy>= 0.0000 <Sz>= 0.5000 <S**2>= 0.7500 S= 0.5000
 Leave Link  401 at Wed Nov  4 18:23:53 2015, MaxMem=  1073741824 cpu:        64.7
 (Enter /gwfefs/opt/x86_64/gaussian/09/D.01/g09/l502.exe)
 UHF open shell SCF:
 Using DIIS extrapolation, IDIIS=  1040.
 Two-electron integral symmetry not used.
 IVT=      842373 IEndB=      842373 NGot=  1073741824 MDV=  1073188054
 LenX=  1073188054 LenY=  1072916092
 Requested convergence on RMS density matrix=1.00D-08 within 128 cycles.
 Requested convergence on MAX density matrix=1.00D-06.
 Requested convergence on             energy=1.00D-06.
 No special actions if energy rises.
 Fock matrices will be formed incrementally for  20 cycles.

 Cycle   1  Pass 1  IDiag  1:
 FoFJK:  IHMeth= 1 ICntrl=       0 DoSepK=F KAlg= 0 I1Cent=   0 FoldK=F
 IRaf= 990000000 NMat=   1 IRICut=       1 DoRegI=T DoRafI=F ISym2E= 0.
 FoFCou: FMM=T IPFlag=           0 FMFlag=      100000 FMFlg1=        2001
         NFxFlg=           0 DoJE=F BraDBF=F KetDBF=F FulRan=T
         wScrn=  0.000000 ICntrl=       0 IOpCl=  1 I1Cent=           0 NGrid=           0
         NMat0=    1 NMatS0=      1 NMatT0=    0 NMatD0=    1 NMtDS0=    0 NMtDT0=    0
 Symmetry not used in FoFCou.
 FMM levels:  10  Number of levels for PrismC:   9
 E= -1473.90545160720    
 DIIS: error= 2.69D-02 at cycle   1 NSaved=   1.
 NSaved= 1 IEnMin= 1 EnMin= -1473.90545160720     IErMin= 1 ErrMin= 2.69D-02
 ErrMax= 2.69D-02  0.00D+00 EMaxC= 1.00D-01 BMatC= 3.18D+00 BMatP= 3.18D+00
 IDIUse=3 WtCom= 7.31D-01 WtEn= 2.69D-01
 Coeff-Com:  0.100D+01
 Coeff-En:   0.100D+01
 Coeff:      0.100D+01
 Gap=     0.258 Goal=   None    Shift=    0.000
 Gap=     0.074 Goal=   None    Shift=    0.000
 GapD=    0.074 DampG=0.500 DampE=0.250 DampFc=0.1250 IDamp=-1.
 Damping current iteration by 1.25D-01
 RMSDP=5.92D-03 MaxDP=5.21D-01              OVMax= 7.48D-01

 Cycle   2  Pass 1  IDiag  1:
 RMSU=  7.32D-04    CP:  9.93D-01
 E= -1474.11008497397     Delta-E=       -0.204633366769 Rises=F Damp=T
 DIIS: error= 1.94D-02 at cycle   2 NSaved=   2.
 NSaved= 2 IEnMin= 2 EnMin= -1474.11008497397     IErMin= 2 ErrMin= 1.94D-02
 ErrMax= 1.94D-02  0.00D+00 EMaxC= 1.00D-01 BMatC= 1.66D+00 BMatP= 3.18D+00
 IDIUse=3 WtCom= 8.06D-01 WtEn= 1.94D-01
 Coeff-Com: -0.655D+00 0.165D+01
 Coeff-En:   0.000D+00 0.100D+01
 Coeff:     -0.527D+00 0.153D+01
 Gap=     0.062 Goal=   None    Shift=    0.000
 Gap=     0.306 Goal=   None    Shift=    0.000
 RMSDP=3.20D-03 MaxDP=3.25D-01 DE=-2.05D-01 OVMax= 5.13D-01

 Cycle   3  Pass 1  IDiag  1:
 RMSU=  3.10D-03    CP:  9.69D-01  1.90D+00
 E= -1471.95291948685     Delta-E=        2.157165487119 Rises=F Damp=F
 DIIS: error= 9.94D-02 at cycle   3 NSaved=   3.
 NSaved= 3 IEnMin= 2 EnMin= -1474.11008497397     IErMin= 2 ErrMin= 1.94D-02
 ErrMax= 9.94D-02  0.00D+00 EMaxC= 1.00D-01 BMatC= 1.38D+01 BMatP= 1.66D+00
 IDIUse=2 WtCom= 0.00D+00 WtEn= 1.00D+00
 Coeff-En:   0.000D+00 0.839D+00 0.161D+00
 Coeff:      0.000D+00 0.839D+00 0.161D+00
 Gap=     0.199 Goal=   None    Shift=    0.000
 Gap=     0.239 Goal=   None    Shift=    0.000
 RMSDP=4.78D-03 MaxDP=7.23D-01 DE= 2.16D+00 OVMax= 9.33D-01

 Cycle   4  Pass 1  IDiag  1:
 RMSU=  2.71D-03    CP:  9.52D-01  3.00D+00 -8.64D-02
 E= -1469.70477917359     Delta-E=        2.248140313264 Rises=F Damp=F
 DIIS: error= 8.00D-02 at cycle   4 NSaved=   4.
 NSaved= 4 IEnMin= 2 EnMin= -1474.11008497397     IErMin= 2 ErrMin= 1.94D-02
 ErrMax= 8.00D-02  0.00D+00 EMaxC= 1.00D-01 BMatC= 1.69D+01 BMatP= 1.66D+00
 IDIUse=2 WtCom= 0.00D+00 WtEn= 1.00D+00
 EnCoef did     4 forward-backward iterations
 Coeff-En:   0.465D+00 0.500D-03 0.283D+00 0.252D+00
 Coeff:      0.465D+00 0.500D-03 0.283D+00 0.252D+00
 Gap=     0.051 Goal=   None    Shift=    0.000
 Gap=     0.036 Goal=   None    Shift=    0.000
 RMSDP=3.78D-03 MaxDP=5.11D-01 DE= 2.25D+00 OVMax= 9.17D-01

 Cycle   5  Pass 1  IDiag  1:
 RMSU=  1.29D-03    CP:  9.79D-01  1.74D+00  3.06D-01  7.99D-02
 E= -1474.70209148472     Delta-E=       -4.997312311136 Rises=F Damp=F
 DIIS: error= 1.36D-02 at cycle   5 NSaved=   5.
 NSaved= 5 IEnMin= 5 EnMin= -1474.70209148472     IErMin= 5 ErrMin= 1.36D-02
 ErrMax= 1.36D-02  0.00D+00 EMaxC= 1.00D-01 BMatC= 2.78D-01 BMatP= 1.66D+00
 IDIUse=3 WtCom= 8.64D-01 WtEn= 1.36D-01
 Coeff-Com: -0.556D+00 0.903D+00 0.833D-01-0.441D-02 0.574D+00
 Coeff-En:   0.000D+00 0.000D+00 0.000D+00 0.412D-01 0.959D+00
 Coeff:     -0.480D+00 0.780D+00 0.720D-01 0.179D-02 0.626D+00
 Gap=     0.044 Goal=   None    Shift=    0.000
 Gap=     0.059 Goal=   None    Shift=    0.000
 RMSDP=1.59D-03 MaxDP=1.82D-01 DE=-5.00D+00 OVMax= 3.67D-01

 Cycle   6  Pass 1  IDiag  1:
 RMSU=  1.37D-03    CP:  9.76D-01  2.45D+00  1.66D-01  1.86D-01  7.48D-01
 E= -1474.60791303686     Delta-E=        0.094178447865 Rises=F Damp=F
 DIIS: error= 2.06D-02 at cycle   6 NSaved=   6.
 NSaved= 6 IEnMin= 5 EnMin= -1474.70209148472     IErMin= 5 ErrMin= 1.36D-02
 ErrMax= 2.06D-02  0.00D+00 EMaxC= 1.00D-01 BMatC= 9.18D-01 BMatP= 2.78D-01
 IDIUse=2 WtCom= 0.00D+00 WtEn= 1.00D+00
 Coeff-En:   0.000D+00 0.000D+00 0.000D+00 0.000D+00 0.619D+00 0.381D+00
 Coeff:      0.000D+00 0.000D+00 0.000D+00 0.000D+00 0.619D+00 0.381D+00
 Gap=     0.120 Goal=   None    Shift=    0.000
 Gap=     0.095 Goal=   None    Shift=    0.000
 RMSDP=1.27D-03 MaxDP=1.64D-01 DE= 9.42D-02 OVMax= 2.64D-01

 Cycle   7  Pass 1  IDiag  1:
 RMSU=  6.65D-04    CP:  9.80D-01  1.73D+00  3.64D-01  7.36D-02  6.54D-01
                    CP:  5.35D-01
 E= -1474.68278257954     Delta-E=       -0.074869542685 Rises=F Damp=F
 DIIS: error= 1.98D-02 at cycle   7 NSaved=   7.
 NSaved= 7 IEnMin= 5 EnMin= -1474.70209148472     IErMin= 5 ErrMin= 1.36D-02
 ErrMax= 1.98D-02  0.00D+00 EMaxC= 1.00D-01 BMatC= 6.38D-01 BMatP= 2.78D-01
 IDIUse=2 WtCom= 0.00D+00 WtEn= 1.00D+00
 EnCoef did    10 forward-backward iterations
 Coeff-En:   0.000D+00 0.000D+00 0.000D+00 0.000D+00 0.309D+00 0.364D+00
 Coeff-En:   0.327D+00
 Coeff:      0.000D+00 0.000D+00 0.000D+00 0.000D+00 0.309D+00 0.364D+00
 Coeff:      0.327D+00
 Gap=     0.092 Goal=   None    Shift=    0.000
 Gap=     0.137 Goal=   None    Shift=    0.000
 RMSDP=8.14D-04 MaxDP=1.39D-01 DE=-7.49D-02 OVMax= 1.76D-01

 Cycle   8  Pass 1  IDiag  1:
 RMSU=  4.31D-04    CP:  9.77D-01  2.06D+00  2.15D-01  1.29D-01  9.21D-01
                    CP:  5.85D-01  6.31D-01
 E= -1474.79334926034     Delta-E=       -0.110566680795 Rises=F Damp=F
 DIIS: error= 5.91D-03 at cycle   8 NSaved=   8.
 NSaved= 8 IEnMin= 8 EnMin= -1474.79334926034     IErMin= 8 ErrMin= 5.91D-03
 ErrMax= 5.91D-03  0.00D+00 EMaxC= 1.00D-01 BMatC= 8.56D-02 BMatP= 2.78D-01
 IDIUse=3 WtCom= 9.41D-01 WtEn= 5.91D-02
 Coeff-Com: -0.127D+00 0.165D+00-0.119D-01-0.709D-02 0.215D+00 0.129D+00
 Coeff-Com:  0.307D+00 0.330D+00
 Coeff-En:   0.000D+00 0.000D+00 0.000D+00 0.000D+00 0.000D+00 0.000D+00
 Coeff-En:   0.192D+00 0.808D+00
 Coeff:     -0.119D+00 0.155D+00-0.112D-01-0.667D-02 0.203D+00 0.122D+00
 Coeff:      0.300D+00 0.358D+00
 Gap=     0.094 Goal=   None    Shift=    0.000
 Gap=     0.109 Goal=   None    Shift=    0.000
 RMSDP=3.31D-04 MaxDP=2.97D-02 DE=-1.11D-01 OVMax= 6.39D-02

 Cycle   9  Pass 1  IDiag  1:
 RMSU=  1.94D-04    CP:  9.77D-01  2.02D+00  2.59D-01  1.18D-01  8.16D-01
                    CP:  6.61D-01  8.56D-01  1.02D+00
 E= -1474.81122144905     Delta-E=       -0.017872188715 Rises=F Damp=F
 DIIS: error= 1.66D-03 at cycle   9 NSaved=   9.
 NSaved= 9 IEnMin= 9 EnMin= -1474.81122144905     IErMin= 9 ErrMin= 1.66D-03
 ErrMax= 1.66D-03  0.00D+00 EMaxC= 1.00D-01 BMatC= 1.21D-02 BMatP= 8.56D-02
 IDIUse=3 WtCom= 9.83D-01 WtEn= 1.66D-02
 Coeff-Com: -0.620D-01 0.723D-01 0.114D-03 0.701D-03-0.144D-01-0.520D-01
 Coeff-Com:  0.128D+00 0.360D+00 0.567D+00
 Coeff-En:   0.000D+00 0.000D+00 0.000D+00 0.000D+00 0.000D+00 0.000D+00
 Coeff-En:   0.000D+00 0.000D+00 0.100D+01
 Coeff:     -0.609D-01 0.711D-01 0.112D-03 0.690D-03-0.142D-01-0.512D-01
 Coeff:      0.126D+00 0.354D+00 0.574D+00
 Gap=     0.104 Goal=   None    Shift=    0.000
 Gap=     0.128 Goal=   None    Shift=    0.000
 RMSDP=2.70D-04 MaxDP=2.85D-02 DE=-1.79D-02 OVMax= 7.50D-02

 Cycle  10  Pass 1  IDiag  1:
 RMSU=  1.27D-04    CP:  9.76D-01  2.05D+00  2.66D-01  1.13D-01  7.85D-01
                    CP:  6.40D-01  1.06D+00  1.44D+00  1.09D+00
 E= -1474.81770344276     Delta-E=       -0.006481993706 Rises=F Damp=F
 DIIS: error= 1.34D-03 at cycle  10 NSaved=  10.
 NSaved=10 IEnMin=10 EnMin= -1474.81770344276     IErMin=10 ErrMin= 1.34D-03
 ErrMax= 1.34D-03  0.00D+00 EMaxC= 1.00D-01 BMatC= 2.48D-03 BMatP= 1.21D-02
 IDIUse=3 WtCom= 9.87D-01 WtEn= 1.34D-02
 Coeff-Com: -0.539D-02 0.125D-01 0.822D-02 0.247D-02-0.437D-01-0.468D-01
 Coeff-Com: -0.759D-01 0.225D-01 0.232D+00 0.894D+00
 Coeff-En:   0.000D+00 0.000D+00 0.000D+00 0.000D+00 0.000D+00 0.000D+00
 Coeff-En:   0.000D+00 0.000D+00 0.000D+00 0.100D+01
 Coeff:     -0.532D-02 0.123D-01 0.811D-02 0.244D-02-0.431D-01-0.462D-01
 Coeff:     -0.749D-01 0.222D-01 0.229D+00 0.896D+00
 Gap=     0.112 Goal=   None    Shift=    0.000
 Gap=     0.139 Goal=   None    Shift=    0.000
 RMSDP=1.99D-04 MaxDP=2.56D-02 DE=-6.48D-03 OVMax= 6.38D-02

 Cycle  11  Pass 1  IDiag  1:
 RMSU=  7.20D-05    CP:  9.76D-01  2.09D+00  2.69D-01  1.14D-01  7.49D-01
                    CP:  6.45D-01  1.14D+00  1.77D+00  1.48D+00  1.40D+00
 E= -1474.81992367715     Delta-E=       -0.002220234395 Rises=F Damp=F
 DIIS: error= 4.61D-04 at cycle  11 NSaved=  11.
 NSaved=11 IEnMin=11 EnMin= -1474.81992367715     IErMin=11 ErrMin= 4.61D-04
 ErrMax= 4.61D-04  0.00D+00 EMaxC= 1.00D-01 BMatC= 9.52D-04 BMatP= 2.48D-03
 IDIUse=3 WtCom= 9.95D-01 WtEn= 4.61D-03
 Coeff-Com:  0.723D-02-0.392D-03 0.519D-02 0.167D-02-0.697D-02-0.614D-02
 Coeff-Com: -0.913D-01-0.122D+00-0.517D-01 0.623D+00 0.642D+00
 Coeff-En:   0.000D+00 0.000D+00 0.000D+00 0.000D+00 0.000D+00 0.000D+00
 Coeff-En:   0.000D+00 0.000D+00 0.000D+00 0.000D+00 0.100D+01
 Coeff:      0.719D-02-0.390D-03 0.516D-02 0.167D-02-0.694D-02-0.611D-02
 Coeff:     -0.909D-01-0.122D+00-0.515D-01 0.620D+00 0.644D+00
 Gap=     0.115 Goal=   None    Shift=    0.000
 Gap=     0.141 Goal=   None    Shift=    0.000
 RMSDP=9.55D-05 MaxDP=1.17D-02 DE=-2.22D-03 OVMax= 2.85D-02

 Cycle  12  Pass 1  IDiag  1:
 RMSU=  3.58D-05    CP:  9.75D-01  2.10D+00  2.70D-01  1.14D-01  7.29D-01
                    CP:  6.47D-01  1.16D+00  1.90D+00  1.66D+00  1.78D+00
                    CP:  1.03D+00
 E= -1474.82047053773     Delta-E=       -0.000546860576 Rises=F Damp=F
 DIIS: error= 1.75D-04 at cycle  12 NSaved=  12.
 NSaved=12 IEnMin=12 EnMin= -1474.82047053773     IErMin=12 ErrMin= 1.75D-04
 ErrMax= 1.75D-04  0.00D+00 EMaxC= 1.00D-01 BMatC= 1.39D-04 BMatP= 9.52D-04
 IDIUse=3 WtCom= 9.98D-01 WtEn= 1.75D-03
 Coeff-Com: -0.629D-03 0.421D-02 0.119D-02 0.260D-03 0.681D-02 0.556D-02
 Coeff-Com: -0.261D-01-0.599D-01-0.647D-01 0.129D+00 0.320D+00 0.684D+00
 Coeff-En:   0.000D+00 0.000D+00 0.000D+00 0.000D+00 0.000D+00 0.000D+00
 Coeff-En:   0.000D+00 0.000D+00 0.000D+00 0.000D+00 0.000D+00 0.100D+01
 Coeff:     -0.628D-03 0.420D-02 0.119D-02 0.259D-03 0.680D-02 0.555D-02
 Coeff:     -0.261D-01-0.598D-01-0.646D-01 0.128D+00 0.320D+00 0.685D+00
 Gap=     0.115 Goal=   None    Shift=    0.000
 Gap=     0.142 Goal=   None    Shift=    0.000
 RMSDP=3.28D-05 MaxDP=5.73D-03 DE=-5.47D-04 OVMax= 6.29D-03

 Cycle  13  Pass 1  IDiag  1:
 RMSU=  2.24D-05    CP:  9.75D-01  2.11D+00  2.70D-01  1.14D-01  7.25D-01
                    CP:  6.48D-01  1.17D+00  1.93D+00  1.70D+00  1.88D+00
                    CP:  1.18D+00  1.14D+00
 E= -1474.82055298355     Delta-E=       -0.000082445822 Rises=F Damp=F
 DIIS: error= 1.37D-04 at cycle  13 NSaved=  13.
 NSaved=13 IEnMin=13 EnMin= -1474.82055298355     IErMin=13 ErrMin= 1.37D-04
 ErrMax= 1.37D-04  0.00D+00 EMaxC= 1.00D-01 BMatC= 7.07D-05 BMatP= 1.39D-04
 IDIUse=3 WtCom= 9.99D-01 WtEn= 1.37D-03
 Coeff-Com: -0.295D-02 0.410D-02-0.708D-04-0.273D-03 0.586D-02 0.404D-02
 Coeff-Com:  0.380D-02-0.103D-01-0.270D-01-0.536D-01 0.594D-01 0.455D+00
 Coeff-Com:  0.562D+00
 Coeff-En:   0.000D+00 0.000D+00 0.000D+00 0.000D+00 0.000D+00 0.000D+00
 Coeff-En:   0.000D+00 0.000D+00 0.000D+00 0.000D+00 0.000D+00 0.000D+00
 Coeff-En:   0.100D+01
 Coeff:     -0.294D-02 0.409D-02-0.707D-04-0.273D-03 0.585D-02 0.403D-02
 Coeff:      0.379D-02-0.103D-01-0.270D-01-0.535D-01 0.593D-01 0.454D+00
 Coeff:      0.563D+00
 Gap=     0.115 Goal=   None    Shift=    0.000
 Gap=     0.142 Goal=   None    Shift=    0.000
 RMSDP=1.97D-05 MaxDP=3.74D-03 DE=-8.24D-05 OVMax= 4.38D-03

 Cycle  14  Pass 1  IDiag  1:
 RMSU=  1.25D-05    CP:  9.75D-01  2.11D+00  2.70D-01  1.14D-01  7.24D-01
                    CP:  6.49D-01  1.17D+00  1.94D+00  1.70D+00  1.91D+00
                    CP:  1.28D+00  1.45D+00  1.25D+00
 E= -1474.82059900190     Delta-E=       -0.000046018350 Rises=F Damp=F
 DIIS: error= 1.29D-04 at cycle  14 NSaved=  14.
 NSaved=14 IEnMin=14 EnMin= -1474.82059900190     IErMin=14 ErrMin= 1.29D-04
 ErrMax= 1.29D-04  0.00D+00 EMaxC= 1.00D-01 BMatC= 2.82D-05 BMatP= 7.07D-05
 IDIUse=3 WtCom= 9.99D-01 WtEn= 1.29D-03
 Coeff-Com: -0.747D-03 0.627D-03-0.100D-03-0.218D-03 0.251D-02 0.137D-02
 Coeff-Com:  0.630D-02 0.203D-02-0.739D-02-0.520D-01-0.158D-01 0.162D+00
 Coeff-Com:  0.351D+00 0.550D+00
 Coeff-En:   0.000D+00 0.000D+00 0.000D+00 0.000D+00 0.000D+00 0.000D+00
 Coeff-En:   0.000D+00 0.000D+00 0.000D+00 0.000D+00 0.000D+00 0.000D+00
 Coeff-En:   0.000D+00 0.100D+01
 Coeff:     -0.746D-03 0.626D-03-0.998D-04-0.218D-03 0.251D-02 0.137D-02
 Coeff:      0.629D-02 0.203D-02-0.738D-02-0.519D-01-0.158D-01 0.161D+00
 Coeff:      0.351D+00 0.551D+00
 Gap=     0.115 Goal=   None    Shift=    0.000
 Gap=     0.143 Goal=   None    Shift=    0.000
 RMSDP=1.47D-05 MaxDP=3.03D-03 DE=-4.60D-05 OVMax= 3.77D-03

 Cycle  15  Pass 1  IDiag  1:
 RMSU=  6.40D-06    CP:  9.75D-01  2.11D+00  2.70D-01  1.14D-01  7.24D-01
                    CP:  6.49D-01  1.17D+00  1.94D+00  1.70D+00  1.93D+00
                    CP:  1.34D+00  1.67D+00  1.64D+00  1.28D+00
 E= -1474.82062854612     Delta-E=       -0.000029544221 Rises=F Damp=F
 DIIS: error= 1.16D-04 at cycle  15 NSaved=  15.
 NSaved=15 IEnMin=15 EnMin= -1474.82062854612     IErMin=15 ErrMin= 1.16D-04
 ErrMax= 1.16D-04  0.00D+00 EMaxC= 1.00D-01 BMatC= 1.42D-05 BMatP= 2.82D-05
 IDIUse=3 WtCom= 9.99D-01 WtEn= 1.16D-03
 Coeff-Com:  0.151D-02-0.164D-02 0.238D-03-0.812D-04-0.752D-04-0.536D-03
 Coeff-Com: -0.223D-02-0.442D-02 0.167D-02 0.263D-01-0.124D-01-0.144D+00
 Coeff-Com: -0.185D+00 0.138D+00 0.118D+01
 Coeff-En:   0.000D+00 0.000D+00 0.000D+00 0.000D+00 0.000D+00 0.000D+00
 Coeff-En:   0.000D+00 0.000D+00 0.000D+00 0.000D+00 0.000D+00 0.000D+00
 Coeff-En:   0.000D+00 0.000D+00 0.100D+01
 Coeff:      0.150D-02-0.164D-02 0.238D-03-0.811D-04-0.751D-04-0.535D-03
 Coeff:     -0.222D-02-0.441D-02 0.167D-02 0.263D-01-0.123D-01-0.144D+00
 Coeff:     -0.185D+00 0.138D+00 0.118D+01
 Gap=     0.115 Goal=   None    Shift=    0.000
 Gap=     0.143 Goal=   None    Shift=    0.000
 RMSDP=2.72D-05 MaxDP=5.78D-03 DE=-2.95D-05 OVMax= 7.10D-03

 Cycle  16  Pass 1  IDiag  1:
 RMSU=  5.06D-06    CP:  9.75D-01  2.11D+00  2.70D-01  1.14D-01  7.24D-01
                    CP:  6.50D-01  1.17D+00  1.94D+00  1.69D+00  1.95D+00
                    CP:  1.45D+00  2.04D+00  2.35D+00  2.28D+00  2.17D+00
 E= -1474.82067386269     Delta-E=       -0.000045316572 Rises=F Damp=F
 DIIS: error= 8.60D-05 at cycle  16 NSaved=  16.
 NSaved=16 IEnMin=16 EnMin= -1474.82067386269     IErMin=16 ErrMin= 8.60D-05
 ErrMax= 8.60D-05  0.00D+00 EMaxC= 1.00D-01 BMatC= 1.01D-05 BMatP= 1.42D-05
 IDIUse=1 WtCom= 1.00D+00 WtEn= 0.00D+00
 Coeff-Com:  0.363D-03 0.324D-03 0.255D-03-0.351D-04 0.315D-03-0.349D-03
 Coeff-Com: -0.597D-02-0.119D-01 0.202D-03 0.617D-01 0.124D-01-0.190D+00
 Coeff-Com: -0.362D+00-0.309D+00 0.821D+00 0.982D+00
 Coeff:      0.363D-03 0.324D-03 0.255D-03-0.351D-04 0.315D-03-0.349D-03
 Coeff:     -0.597D-02-0.119D-01 0.202D-03 0.617D-01 0.124D-01-0.190D+00
 Coeff:     -0.362D+00-0.309D+00 0.821D+00 0.982D+00
 Gap=     0.115 Goal=   None    Shift=    0.000
 Gap=     0.143 Goal=   None    Shift=    0.000
 RMSDP=3.22D-05 MaxDP=6.77D-03 DE=-4.53D-05 OVMax= 8.27D-03

 Cycle  17  Pass 1  IDiag  1:
 RMSU=  9.91D-06    CP:  9.75D-01  2.11D+00  2.70D-01  1.14D-01  7.24D-01
                    CP:  6.51D-01  1.17D+00  1.95D+00  1.68D+00  1.96D+00
                    CP:  1.56D+00  2.46D+00  3.00D+00  3.00D+00  3.00D+00
                    CP:  2.05D+00
 E= -1474.82071741284     Delta-E=       -0.000043550146 Rises=F Damp=F
[...]
    51   Atom       -0.000180      0.001725     -0.001660
    52   Atom       -0.000159      0.000326     -0.001002
    53   Atom       -0.000092      0.001815     -0.001555
    54   Atom       -0.003650      0.000140     -0.005075
    55   Atom        0.000263     -0.000928     -0.008995
    56   Atom       -0.004186      0.002606     -0.008309
    57   Atom       -0.002233      0.000346     -0.002381
    58   Atom       -0.001506      0.001980     -0.001006
    59   Atom        0.244417     -0.728007     -0.023788
    60   Atom        0.435384     -0.804439     -0.381575
    61   Atom        0.495616     -0.944379     -0.462348
 --------------------------------------------------------


 ---------------------------------------------------------------------------------
              Anisotropic Spin Dipole Couplings in Principal Axis System
 ---------------------------------------------------------------------------------

       Atom             a.u.   MegaHertz   Gauss  10(-4) cm-1        Axes

              Baa    -0.0009    -0.123    -0.044    -0.041  0.4436 -0.0906  0.8916
     1 C(13)  Bbb    -0.0008    -0.105    -0.038    -0.035  0.8453  0.3728 -0.3827
              Bcc     0.0017     0.228     0.081     0.076 -0.2977  0.9235  0.2420
 
              Baa    -0.0006    -0.333    -0.119    -0.111  0.1873 -0.0980  0.9774
     2 H(1)   Bbb    -0.0006    -0.296    -0.106    -0.099  0.9503  0.2701 -0.1551
              Bcc     0.0012     0.629     0.225     0.210 -0.2488  0.9578  0.1438
 
              Baa    -0.0007    -0.351    -0.125    -0.117 -0.0679 -0.3953  0.9160
     3 H(1)   Bbb    -0.0006    -0.308    -0.110    -0.103  0.9280  0.3121  0.2034
              Bcc     0.0012     0.659     0.235     0.220 -0.3663  0.8639  0.3457
 
              Baa    -0.0012    -0.659    -0.235    -0.220  0.0456 -0.3509  0.9353
     4 H(1)   Bbb    -0.0010    -0.552    -0.197    -0.184  0.9842  0.1761  0.0181
              Bcc     0.0023     1.211     0.432     0.404 -0.1711  0.9197  0.3534
 
              Baa    -0.0015    -0.197    -0.070    -0.066 -0.6093 -0.3115  0.7292
     5 C(13)  Bbb    -0.0012    -0.160    -0.057    -0.053  0.6560  0.3186  0.6842
              Bcc     0.0027     0.357     0.127     0.119 -0.4454  0.8953  0.0102
 
              Baa    -0.0021    -1.098    -0.392    -0.366  0.3450  0.3064  0.8872
     6 H(1)   Bbb    -0.0015    -0.802    -0.286    -0.268  0.8561  0.2848 -0.4312
              Bcc     0.0036     1.900     0.678     0.634 -0.3848  0.9083 -0.1641
 
              Baa    -0.0008    -0.428    -0.153    -0.143  0.4009  0.3336  0.8532
     7 H(1)   Bbb    -0.0007    -0.350    -0.125    -0.117  0.7568  0.4043 -0.5136
              Bcc     0.0015     0.777     0.277     0.259 -0.5163  0.8516 -0.0904
 
              Baa    -0.0108    -0.416    -0.148    -0.139 -0.0486 -0.2260  0.9729
     8 N(14)  Bbb    -0.0090    -0.348    -0.124    -0.116  0.5171  0.8277  0.2181
              Bcc     0.0198     0.764     0.273     0.255  0.8546 -0.5137 -0.0766
 
              Baa    -0.0047    -0.627    -0.224    -0.209  0.2104 -0.3094  0.9274
     9 C(13)  Bbb    -0.0040    -0.541    -0.193    -0.180  0.8978  0.4366 -0.0580
              Bcc     0.0087     1.168     0.417     0.390 -0.3870  0.8448  0.3697
 
              Baa    -0.0047    -0.630    -0.225    -0.210  0.4612  0.8826  0.0909
    10 C(13)  Bbb     0.0009     0.125     0.045     0.042  0.1576 -0.1823  0.9705
              Bcc     0.0038     0.505     0.180     0.169  0.8732 -0.4332 -0.2232
 
              Baa    -0.0020    -1.082    -0.386    -0.361  0.1417  0.7064  0.6935
    11 H(1)   Bbb    -0.0016    -0.874    -0.312    -0.292 -0.2985  0.6985 -0.6504
              Bcc     0.0037     1.956     0.698     0.653  0.9438  0.1148 -0.3098
 
              Baa    -0.0018    -0.070    -0.025    -0.023 -0.5073  0.8237 -0.2532
    12 N(14)  Bbb    -0.0003    -0.013    -0.005    -0.004  0.7587  0.5662  0.3220
              Bcc     0.0021     0.083     0.029     0.028 -0.4086  0.0288  0.9122
 
              Baa    -0.0006    -0.294    -0.105    -0.098 -0.0389  0.8217 -0.5686
    13 H(1)   Bbb    -0.0005    -0.267    -0.095    -0.089  0.3963  0.5351  0.7461
              Bcc     0.0011     0.562     0.200     0.187  0.9173 -0.1963 -0.3465
 
              Baa    -0.0019    -0.251    -0.090    -0.084  0.6141  0.3204  0.7213
    14 C(13)  Bbb    -0.0008    -0.108    -0.039    -0.036 -0.0143  0.9182 -0.3958
              Bcc     0.0027     0.359     0.128     0.120  0.7891 -0.2328 -0.5685
 
              Baa    -0.0006    -0.321    -0.115    -0.107  0.5622  0.4681  0.6818
    15 H(1)   Bbb    -0.0005    -0.249    -0.089    -0.083 -0.2978 -0.6545  0.6949
              Bcc     0.0011     0.571     0.204     0.190  0.7715 -0.5937 -0.2286
 
              Baa    -0.0004    -0.059    -0.021    -0.020  0.3736  0.9039 -0.2083
    16 C(13)  Bbb    -0.0004    -0.051    -0.018    -0.017  0.8804 -0.2748  0.3866
              Bcc     0.0008     0.109     0.039     0.037 -0.2922  0.3278  0.8984
 
              Baa    -0.0005    -0.264    -0.094    -0.088  0.5328  0.7972 -0.2840
    17 H(1)   Bbb    -0.0004    -0.231    -0.082    -0.077  0.8167 -0.3965  0.4192
              Bcc     0.0009     0.495     0.177     0.165 -0.2216  0.4553  0.8623
 
              Baa    -0.0003    -0.184    -0.066    -0.061  0.7308  0.6809  0.0474
    18 H(1)   Bbb    -0.0003    -0.171    -0.061    -0.057 -0.5853  0.6609 -0.4697
              Bcc     0.0007     0.355     0.127     0.118 -0.3512  0.3155  0.8815
 
              Baa    -0.0004    -0.223    -0.080    -0.074  0.6478  0.7575 -0.0809
    19 H(1)   Bbb    -0.0004    -0.213    -0.076    -0.071  0.7394 -0.5997  0.3060
              Bcc     0.0008     0.436     0.156     0.145 -0.1833  0.2581  0.9486
 
              Baa    -0.0009    -0.124    -0.044    -0.042  0.6291  0.7735 -0.0775
    20 C(13)  Bbb    -0.0007    -0.096    -0.034    -0.032  0.7168 -0.5385  0.4430
              Bcc     0.0016     0.221     0.079     0.074 -0.3009  0.3342  0.8932
 
              Baa    -0.0009    -0.488    -0.174    -0.163  0.5059  0.8444  0.1764
    21 H(1)   Bbb    -0.0008    -0.412    -0.147    -0.137  0.7489 -0.5314  0.3960
              Bcc     0.0017     0.900     0.321     0.300 -0.4281  0.0683  0.9011
 
              Baa    -0.0010    -0.523    -0.187    -0.174  0.7156  0.6864  0.1294
    22 H(1)   Bbb    -0.0009    -0.475    -0.170    -0.158 -0.5046  0.6361 -0.5837
              Bcc     0.0019     0.998     0.356     0.333 -0.4829  0.3525  0.8016
 
              Baa    -0.0015    -0.204    -0.073    -0.068  0.3332  0.8952 -0.2960
    23 C(13)  Bbb    -0.0009    -0.118    -0.042    -0.040  0.9343 -0.2713  0.2313
              Bcc     0.0024     0.322     0.115     0.107 -0.1267  0.3536  0.9268
 
              Baa    -0.0013    -0.697    -0.249    -0.233  0.5308  0.7434 -0.4071
    24 H(1)   Bbb    -0.0011    -0.582    -0.208    -0.194  0.8453 -0.4294  0.3180
              Bcc     0.0024     1.279     0.456     0.427 -0.0616  0.5129  0.8563
 
              Baa    -0.0016    -0.845    -0.301    -0.282  0.4750  0.8681 -0.1441
    25 H(1)   Bbb    -0.0014    -0.766    -0.273    -0.255  0.8772 -0.4543  0.1553
              Bcc     0.0030     1.610     0.575     0.537 -0.0693  0.2002  0.9773
 
              Baa    -0.0055    -0.733    -0.262    -0.245  0.4807  0.8333 -0.2731
    26 C(13)  Bbb    -0.0029    -0.395    -0.141    -0.132  0.8651 -0.3999  0.3028
              Bcc     0.0084     1.128     0.402     0.376 -0.1431  0.3818  0.9131
 
              Baa    -0.0481     3.480     1.242     1.161  0.6406 -0.3007  0.7066
    27 O(17)  Bbb    -0.0093     0.676     0.241     0.226  0.3564  0.9315  0.0733
              Bcc     0.0574    -4.156    -1.483    -1.386 -0.6802  0.2049  0.7038
 
              Baa    -0.0369     2.669     0.952     0.890 -0.3291  0.5964  0.7321
    28 O(17)  Bbb     0.0004    -0.032    -0.011    -0.011  0.3344  0.7986 -0.5004
              Bcc     0.0364    -2.637    -0.941    -0.880  0.8831 -0.0801  0.4623
 
              Baa    -0.0005    -0.065    -0.023    -0.022 -0.4964 -0.3617  0.7891
    29 C(13)  Bbb    -0.0005    -0.061    -0.022    -0.020 -0.5316  0.8453  0.0530
              Bcc     0.0009     0.126     0.045     0.042  0.6863  0.3932  0.6119
 
              Baa    -0.0004    -0.228    -0.081    -0.076 -0.2203 -0.6522  0.7254
    30 H(1)   Bbb    -0.0004    -0.218    -0.078    -0.073 -0.5948  0.6792  0.4300
              Bcc     0.0008     0.445     0.159     0.149  0.7731  0.3367  0.5375
 
              Baa    -0.0005    -0.268    -0.095    -0.089  0.3000  0.7454 -0.5953
    31 H(1)   Bbb    -0.0005    -0.256    -0.091    -0.085  0.7191 -0.5868 -0.3723
              Bcc     0.0010     0.524     0.187     0.175  0.6268  0.3164  0.7120
 
              Baa    -0.0003    -0.171    -0.061    -0.057 -0.2848 -0.6077  0.7413
    32 H(1)   Bbb    -0.0003    -0.164    -0.059    -0.055  0.7087 -0.6542 -0.2641
              Bcc     0.0006     0.336     0.120     0.112  0.6455  0.4501  0.6170
 
              Baa    -0.0007    -0.088    -0.031    -0.029 -0.1223 -0.6001  0.7905
    33 C(13)  Bbb    -0.0006    -0.081    -0.029    -0.027  0.7662 -0.5633 -0.3091
              Bcc     0.0013     0.168     0.060     0.056  0.6308  0.5679  0.5287
 
              Baa    -0.0006    -0.343    -0.122    -0.114 -0.3813 -0.4406  0.8127
    34 H(1)   Bbb    -0.0006    -0.326    -0.116    -0.109  0.7735 -0.6335  0.0194
              Bcc     0.0013     0.669     0.239     0.223  0.5062  0.6361  0.5824
 
              Baa    -0.0005    -0.270    -0.096    -0.090 -0.1940 -0.3712  0.9081
    35 H(1)   Bbb    -0.0005    -0.248    -0.088    -0.083  0.7208 -0.6818 -0.1248
              Bcc     0.0010     0.518     0.185     0.173  0.6655  0.6303  0.3998
 
              Baa    -0.0022    -0.085    -0.030    -0.028  0.2453 -0.3612  0.8997
    36 N(14)  Bbb     0.0007     0.028     0.010     0.009  0.6746 -0.6029 -0.4259
              Bcc     0.0015     0.057     0.020     0.019  0.6962  0.7114  0.0958
 
              Baa    -0.0011    -0.591    -0.211    -0.197  0.0925 -0.1458  0.9850
    37 H(1)   Bbb    -0.0010    -0.511    -0.182    -0.171  0.7835 -0.5998 -0.1623
              Bcc     0.0021     1.102     0.393     0.368  0.6145  0.7868  0.0588
 
              Baa    -0.0016    -0.215    -0.077    -0.072 -0.3308 -0.4161  0.8470
    38 C(13)  Bbb    -0.0006    -0.082    -0.029    -0.027  0.7057 -0.7050 -0.0707
              Bcc     0.0022     0.297     0.106     0.099  0.6265  0.5743  0.5269
 
              Baa    -0.0058    -0.780    -0.278    -0.260  0.0330 -0.0952  0.9949
    39 C(13)  Bbb    -0.0001    -0.011    -0.004    -0.004 -0.4095  0.9068  0.1004
              Bcc     0.0059     0.792     0.282     0.264  0.9117  0.4108  0.0091
 
              Baa    -0.0041    -2.191    -0.782    -0.731  0.0636  0.4144  0.9079
    40 H(1)   Bbb    -0.0026    -1.370    -0.489    -0.457  0.7165 -0.6522  0.2475
              Bcc     0.0067     3.561     1.271     1.188  0.6947  0.6347 -0.3384
 
              Baa    -0.0089    -0.345    -0.123    -0.115 -0.3768  0.8692  0.3200
    41 N(14)  Bbb    -0.0034    -0.132    -0.047    -0.044 -0.0730 -0.3723  0.9252
              Bcc     0.0124     0.477     0.170     0.159  0.9234  0.3253  0.2037
 
              Baa    -0.0029    -0.385    -0.137    -0.128 -0.0074  0.7843 -0.6203
    42 C(13)  Bbb    -0.0006    -0.082    -0.029    -0.027  0.7213 -0.4254 -0.5466
              Bcc     0.0035     0.467     0.167     0.156  0.6926  0.4515  0.5626
 
              Baa    -0.0022    -1.168    -0.417    -0.389  0.0936  0.9290 -0.3580
    43 H(1)   Bbb    -0.0018    -0.975    -0.348    -0.325  0.6978 -0.3177 -0.6420
              Bcc     0.0040     2.142     0.764     0.715  0.7102  0.1897  0.6780
 
              Baa    -0.0005    -0.064    -0.023    -0.021  0.4574  0.8667 -0.1990
    44 C(13)  Bbb    -0.0004    -0.057    -0.020    -0.019  0.7264 -0.4932 -0.4786
              Bcc     0.0009     0.121     0.043     0.040  0.5129 -0.0744  0.8552
 
              Baa    -0.0005    -0.279    -0.100    -0.093  0.2911  0.9212 -0.2580
    45 H(1)   Bbb    -0.0005    -0.265    -0.094    -0.088  0.7407 -0.3877 -0.5487
              Bcc     0.0010     0.544     0.194     0.181  0.6055  0.0314  0.7952
 
              Baa    -0.0003    -0.166    -0.059    -0.055  0.3324  0.9363 -0.1139
    46 H(1)   Bbb    -0.0003    -0.158    -0.056    -0.053  0.7809 -0.3409 -0.5234
              Bcc     0.0006     0.323     0.115     0.108  0.5288 -0.0850  0.8445
 
              Baa    -0.0005    -0.260    -0.093    -0.087  0.2289  0.9691 -0.0915
    47 H(1)   Bbb    -0.0005    -0.250    -0.089    -0.083  0.8882 -0.2464 -0.3878
              Bcc     0.0010     0.509     0.182     0.170  0.3984 -0.0075  0.9172
 
              Baa    -0.0006    -0.075    -0.027    -0.025 -0.1920  0.8553  0.4812
    48 C(13)  Bbb    -0.0005    -0.066    -0.024    -0.022  0.8231  0.4074 -0.3957
              Bcc     0.0011     0.141     0.050     0.047  0.5345 -0.3201  0.7822
 
              Baa    -0.0004    -0.237    -0.084    -0.079  0.4349  0.8836  0.1736
    49 H(1)   Bbb    -0.0004    -0.217    -0.078    -0.072  0.8004 -0.2910 -0.5242
              Bcc     0.0009     0.454     0.162     0.151  0.4126 -0.3670  0.8337
 
              Baa    -0.0005    -0.250    -0.089    -0.083  0.4396  0.8969  0.0483
    50 H(1)   Bbb    -0.0004    -0.234    -0.084    -0.078 -0.6629  0.2877  0.6912
              Bcc     0.0009     0.485     0.173     0.162  0.6061 -0.3359  0.7210
 
              Baa    -0.0026    -0.101    -0.036    -0.034 -0.2625  0.9009  0.3457
    51 N(14)  Bbb    -0.0015    -0.056    -0.020    -0.019  0.9103  0.3500 -0.2212
              Bcc     0.0041     0.158     0.056     0.053  0.3202 -0.2566  0.9119
 
              Baa    -0.0012    -0.631    -0.225    -0.211  0.5340  0.8189  0.2102
    52 H(1)   Bbb    -0.0011    -0.574    -0.205    -0.192  0.8386 -0.4815 -0.2547
              Bcc     0.0023     1.205     0.430     0.402  0.1074 -0.3123  0.9439
 
              Baa    -0.0023    -0.306    -0.109    -0.102 -0.5315  0.4956  0.6869
    53 C(13)  Bbb    -0.0002    -0.031    -0.011    -0.010  0.6556  0.7542 -0.0369
              Bcc     0.0025     0.337     0.120     0.112  0.5364 -0.4307  0.7258
 
              Baa    -0.0095    -1.280    -0.457    -0.427  0.2467  0.8986  0.3628
    54 C(13)  Bbb     0.0032     0.427     0.152     0.142  0.7608  0.0523 -0.6468
              Bcc     0.0064     0.853     0.304     0.285  0.6002 -0.4356  0.6708
 
              Baa    -0.0077    -4.131    -1.474    -1.378  0.0987  0.8591  0.5021
    55 H(1)   Bbb    -0.0053    -2.848    -1.016    -0.950  0.9938 -0.1109 -0.0057
              Bcc     0.0131     6.979     2.490     2.328 -0.0508 -0.4996  0.8648
 
              Baa    -0.0083    -0.320    -0.114    -0.107  0.6631  0.6929  0.2832
    56 N(14)  Bbb    -0.0044    -0.168    -0.060    -0.056  0.7059 -0.4529 -0.5446
              Bcc     0.0127     0.488     0.174     0.163  0.2491 -0.5610  0.7894
 
              Baa    -0.0032    -0.434    -0.155    -0.145  0.5900  0.7204  0.3646
    57 C(13)  Bbb    -0.0003    -0.039    -0.014    -0.013  0.7037 -0.2375 -0.6696
              Bcc     0.0035     0.473     0.169     0.158 -0.3958  0.6516 -0.6471
 
              Baa    -0.0018    -0.939    -0.335    -0.313  0.6146  0.7373 -0.2804
    58 H(1)   Bbb    -0.0015    -0.807    -0.288    -0.269 -0.2965  0.5453  0.7840
              Bcc     0.0033     1.746     0.623     0.582  0.7310 -0.3987  0.5538
 
              Baa    -0.7541   -13.056    -4.659    -4.355 -0.3127  0.9257 -0.2128
    59 Fe(57) Bbb    -0.3465    -5.999    -2.141    -2.001  0.5603  0.3607  0.7457
              Bcc     1.1006    19.055     6.799     6.356  0.7670  0.1139 -0.6314
 
              Baa    -0.6455   -24.894    -8.883    -8.304 -0.6117  0.7539 -0.2397
    60 N(14)  Bbb    -0.5706   -22.007    -7.853    -7.341  0.4186  0.5656  0.7105
              Bcc     1.2161    46.902    16.736    15.645  0.6712  0.3342 -0.6616
 
              Baa    -0.7428    53.745    19.178    17.927 -0.6080  0.7625 -0.2212
    61 O(17)  Bbb    -0.6831    49.426    17.636    16.487  0.4365  0.5537  0.7091
              Bcc     1.4258  -103.171   -36.814   -34.414 -0.6632 -0.3346  0.6695
 

 ---------------------------------------------------------------------------------

 No NMR shielding tensors so no spin-rotation constants.
 Leave Link  601 at Wed Nov  4 19:59:59 2015, MaxMem=  1073741824 cpu:        11.5
 (Enter /gwfefs/opt/x86_64/gaussian/09/D.01/g09/l9999.exe)
 1\1\GINC-GWACSG02\FOpt\UB3LYP\Gen\C19H31Fe1N7O3(1+,2)\KYAGI\04-Nov-201
 5\0\\#P B3LYP/gen OPT=readopt pseudo=read NOSYMMETRY MAXDISK=50GB\\opt
  at B3LYP/6-31G(d,p)\\1,2\C,7.3815103667,1.1467667774,5.0340321063\H,7
 .1284004073,0.2658191513,5.4336417098\H,7.9702704377,0.9467006411,4.25
 12869523\H,6.4916080308,1.6720084063,4.6797252135\C,8.1180528473,1.989
 2044585,6.1024691675\H,7.3911130159,2.3773491717,6.8187190644\H,8.7891
 396182,1.3276861018,6.6662067396\N,8.5927394591,4.477593836,5.62800458
 3\C,8.950615651,3.1289055114,5.5787351819\C,9.5888618942,5.1622175889,
 5.0833176954\H,9.6130392556,6.2317468561,4.9489290591\N,10.5771551665,
 4.3306830727,4.6908168258\H,11.4415239501,4.6071343753,4.2466414711\C,
 10.1933461553,3.04100387,4.9988731141\H,10.8226253804,2.1896627747,4.7
 896065408\C,7.2753684462,3.9696202755,0.273527464\H,6.8709005468,3.103
 9911478,0.5675019906\H,8.1015669652,3.8243609884,-0.2706672611\H,6.541
 1452883,4.4771449462,-0.3664805204\C,7.4622158877,4.7506689948,1.58302
 11511\H,7.8025669019,5.779380178,1.4243422441\H,8.2251179245,4.2501528
 084,2.1943743883\C,6.1113353041,4.7494554345,2.347605017\H,5.607696469
 4,3.785461409,2.2280408265\H,5.4516892586,5.5226901737,1.9347951394\C,
 6.274065413,4.9885444252,3.8175011403\O,6.7765205331,6.0874604403,4.25
 09626227\O,5.9774693764,4.1145283363,4.6927707766\C,9.8548484627,8.777
 4537019,10.2366751246\H,10.7100176574,8.3933121691,9.8892055965\H,9.39
 1677144,8.1591760005,10.8713405337\H,10.2102662141,9.569889395,10.9178
 918505\C,9.0202359726,9.5329184603,9.1923943128\H,8.1887350443,10.0434
 483278,9.6982929773\H,9.6462375517,10.3321410751,8.7745606477\N,8.1876
 964991,9.1888756898,6.8148382139\H,8.3168107482,10.1411572922,6.499959
 9108\C,8.4866815905,8.7016432019,8.0764369825\C,7.6797215212,8.1791889
 395,6.0670094941\H,7.3483958608,8.2702569463,5.0438259612\N,7.64228203
 86,7.0657324735,6.7868165327\C,8.139951734,7.3818593792,8.0339374923\H
 ,8.2187415764,6.6499557851,8.8174479122\C,8.8088650968,5.5921139182,11
 .976846591\H,9.2362488663,6.2516810586,11.3587133191\H,9.3910976029,5.
 4141121702,12.7704218732\H,7.8694168986,6.0280526909,12.3408911201\C,8
 .5398822322,4.22673574,11.2845469729\H,8.1153266728,3.530446705,12.019
 2430535\H,9.4941709827,3.7884689831,10.9719625702\N,6.2815673272,4.482
 9085497,10.1340992372\H,5.7143290124,4.4663448659,10.9712365089\C,7.65
 59729013,4.2998775741,10.0780329239\C,5.8108612387,4.6409128802,8.8731
 9497\H,4.7713575892,4.8085733924,8.6356117515\N,6.8035817305,4.5791503
 064,7.9982577984\C,7.9495268673,4.3392782051,8.7388396997\H,8.91280564
 21,4.2487943178,8.262140383\Fe,6.7800825719,5.399186053,6.0940635427\N
 ,5.1585964553,6.1292024345,6.3526888922\O,4.4913427726,6.9824172833,5.
 9152187058\\Version=ES64L-G09RevD.01\HF=-1474.864113\S2=0.89241\S2-1=0
 .\S2A=0.752879\RMSD=5.141e-09\RMSF=1.440e-05\Dipole=1.8674861,1.429428
 9,1.8371317\Quadrupole=53.4220469,-67.5472636,14.1252167,188.5545332,2
 18.3668702,164.6476511\PG=C01 [X(C19H31Fe1N7O3)]\\@


 A DANDELION FROM A LOVER MEANS MORE THAN AN ORCHID FROM A FRIEND.
 Job cpu time:       0 days 18 hours 42 minutes 23.9 seconds.
 File lengths (MBytes):  RWF=    259 Int=      0 D2E=      0 Chk=     25 Scr=      1
 Normal termination of Gaussian 09 at Wed Nov  4 20:00:00 2015.

real	96m17.022s
user	1106m26.815s
sys	15m57.183s
