 Entering Gaussian System, Link 0=g09
 Initial command:
 /gwfefs/opt/x86_64/gaussian/09/D.01/g09/l1.exe "/tmp/FeB-his3-glu-NO_s.5881/Gau-8613.inp" -scrdir="/tmp/FeB-his3-glu-NO_s.5881/"
 Entering Link 1 = /gwfefs/opt/x86_64/gaussian/09/D.01/g09/l1.exe PID=      8614.
  
 Copyright (c) 1988,1990,1992,1993,1995,1998,2003,2009,2013,
            Gaussian, Inc.  All Rights Reserved.
  
 This is part of the Gaussian(R) 09 program.  It is based on
 the Gaussian(R) 03 system (copyright 2003, Gaussian, Inc.),
 the Gaussian(R) 98 system (copyright 1998, Gaussian, Inc.),
 the Gaussian(R) 94 system (copyright 1995, Gaussian, Inc.),
 the Gaussian 92(TM) system (copyright 1992, Gaussian, Inc.),
 the Gaussian 90(TM) system (copyright 1990, Gaussian, Inc.),
 the Gaussian 88(TM) system (copyright 1988, Gaussian, Inc.),
 the Gaussian 86(TM) system (copyright 1986, Carnegie Mellon
 University), and the Gaussian 82(TM) system (copyright 1983,
 Carnegie Mellon University). Gaussian is a federally registered
 trademark of Gaussian, Inc.
  
 This software contains proprietary and confidential information,
 including trade secrets, belonging to Gaussian, Inc.
  
 This software is provided under written license and may be
 used, copied, transmitted, or stored only in accord with that
 written license.
  
 The following legend is applicable only to US Government
 contracts under FAR:
  
                    RESTRICTED RIGHTS LEGEND
  
 Use, reproduction and disclosure by the US Government is
 subject to restrictions as set forth in subparagraphs (a)
 and (c) of the Commercial Computer Software - Restricted
 Rights clause in FAR 52.227-19.
  
 Gaussian, Inc.
 340 Quinnipiac St., Bldg. 40, Wallingford CT 06492
  
  
 ---------------------------------------------------------------
 Warning -- This program may not be used in any manner that
 competes with the business of Gaussian, Inc. or will provide
 assistance to any competitor of Gaussian, Inc.  The licensee
 of this program is prohibited from giving any competitor of
 Gaussian, Inc. access to this program.  By using this program,
 the user acknowledges that Gaussian, Inc. is engaged in the
 business of creating and licensing software in the field of
 computational chemistry and represents and warrants to the
 licensee that it is not a competitor of Gaussian, Inc. and that
 it will not use this program in any manner prohibited above.
 ---------------------------------------------------------------
  

 Cite this work as:
 Gaussian 09, Revision D.01,
 M. J. Frisch, G. W. Trucks, H. B. Schlegel, G. E. Scuseria, 
 M. A. Robb, J. R. Cheeseman, G. Scalmani, V. Barone, B. Mennucci, 
 G. A. Petersson, H. Nakatsuji, M. Caricato, X. Li, H. P. Hratchian, 
 A. F. Izmaylov, J. Bloino, G. Zheng, J. L. Sonnenberg, M. Hada, 
 M. Ehara, K. Toyota, R. Fukuda, J. Hasegawa, M. Ishida, T. Nakajima, 
 Y. Honda, O. Kitao, H. Nakai, T. Vreven, J. A. Montgomery, Jr., 
 J. E. Peralta, F. Ogliaro, M. Bearpark, J. J. Heyd, E. Brothers, 
 K. N. Kudin, V. N. Staroverov, T. Keith, R. Kobayashi, J. Normand, 
 K. Raghavachari, A. Rendell, J. C. Burant, S. S. Iyengar, J. Tomasi, 
 M. Cossi, N. Rega, J. M. Millam, M. Klene, J. E. Knox, J. B. Cross, 
 V. Bakken, C. Adamo, J. Jaramillo, R. Gomperts, R. E. Stratmann, 
 O. Yazyev, A. J. Austin, R. Cammi, C. Pomelli, J. W. Ochterski, 
 R. L. Martin, K. Morokuma, V. G. Zakrzewski, G. A. Voth, 
 P. Salvador, J. J. Dannenberg, S. Dapprich, A. D. Daniels, 
 O. Farkas, J. B. Foresman, J. V. Ortiz, J. Cioslowski, 
 and D. J. Fox, Gaussian, Inc., Wallingford CT, 2013.
 
 ******************************************
 Gaussian 09:  ES64L-G09RevD.01 24-Apr-2013
                 4-Nov-2015 
 ******************************************
 %nprocshared=12
 Will use up to   12 processors via shared memory.
 %chk=FeB-his3-glu-NO_s.chk
 %mem=8GB
 ------------------------------------------------------------
 #P B3LYP/gen OPT=readopt pseudo=read NOSYMMETRY MAXDISK=50GB
 ------------------------------------------------------------
 1/14=-1,18=20,19=15,26=3,29=6000,38=1/1,3;
 2/9=110,12=2,15=1,17=6,18=5,40=1/2;
 3/5=7,11=2,16=1,17=8,25=1,30=1,71=1,74=-5/1,2,3;
 4//1;
 5/5=2,38=5/2;
 6/7=2,8=2,9=2,10=2,28=1/1;
 7/30=1/1,2,3,16;
 1/14=-1,18=20,19=15,26=3/3(2);
 2/9=110,15=1/2;
 99//99;
 2/9=110,15=1/2;
 3/5=7,6=1,11=2,16=1,17=8,25=1,30=1,71=1,74=-5,82=7/1,2,3;
 4/5=5,16=3,69=1/1;
 5/5=2,38=5/2;
 7/30=1/1,2,3,16;
 1/14=-1,18=20,19=15,26=3/3(-5);
 2/9=110,15=1/2;
 6/7=2,8=2,9=2,10=2,19=2,28=1/1;
 99/9=1/99;
 Leave Link    1 at Wed Nov  4 22:52:06 2015, MaxMem=  1073741824 cpu:         1.4
 (Enter /gwfefs/opt/x86_64/gaussian/09/D.01/g09/l101.exe)
 -----------------------
 opt at B3LYP/6-31G(d,p)
 -----------------------
 Symbolic Z-matrix:
 Charge =  1 Multiplicity = 6
 C                     7.38143   1.14675   5.03407 
 H                     7.12845   0.2658    5.43362 
 H                     7.97027   0.94675   4.25127 
 H                     6.50895   1.72618   4.72344 
 C                     8.24624   1.88403   6.09188 
 H                     7.60778   2.31765   6.86548 
 H                     8.8792    1.13986   6.59156 
 N                     8.78564   4.28298   5.43614 
 C                     9.14502   2.94289   5.52339 
 C                     9.77463   4.91525   4.8161 
 H                     9.78709   5.96456   4.56341 
 N                     10.76393   4.04905   4.51321 
 H                     11.62502   4.27852   4.0362 
 C                     10.38593   2.79446   4.9536 
 H                     11.01395   1.92728   4.81861 
 C                     7.27542   3.9696    0.27345 
 H                     6.87087   3.10401   0.56752 
 H                     8.10157   3.82435  -0.27066 
 H                     6.54586   4.44905  -0.39575 
 C                     7.46831   4.83766   1.51741 
 H                     7.95034   5.79328   1.28556 
 H                     8.12832   4.31608   2.22388 
 C                     6.09932   5.10093   2.19338 
 H                     5.46126   4.21441   2.13505 
 H                     5.58494   5.92035   1.67676 
 C                     6.29147   5.46023   3.64125 
 O                     7.02333   6.4275    3.97632 
 O                     5.79179   4.68627   4.55455 
 C                     9.85488   8.77752   10.23672 
 H                     10.71     8.39329   9.88918 
 H                     9.39167   8.15915   10.87131 
 H                     10.2231   9.55784   10.92614 
 C                     9.00657   9.56317   9.22738 
 H                     8.21943   10.10215   9.7738 
 H                     9.64266   10.34163   8.78528 
 N                     7.92788   9.30915   6.94311 
 H                     7.96866   10.28612   6.68439 
 C                     8.38967   8.76289   8.13296 
 C                     7.41619   8.31856   6.17689 
 H                     7.01675   8.44203   5.18194 
 N                     7.51793   7.1612    6.81489 
 C                     8.11994   7.42973   8.03029 
 H                     8.32543   6.64998   8.74424 
 C                     8.80888   5.59207   11.97697 
 H                     9.23618   6.25168   11.35867 
 H                     9.39114   5.41415   12.7704 
 H                     7.87834   6.04203   12.34888 
 C                     8.51113   4.22991   11.30347 
 H                     8.07681   3.55039   12.0483 
 H                     9.45195   3.76679   10.98611 
 N                     6.26532   4.59727   10.15143 
 H                     5.70808   4.68849   10.99086 
 C                     7.62323   4.31222   10.10381 
 C                     5.7954    4.69145   8.8837 
 H                     4.76476   4.90651   8.64054 
 N                     6.7719    4.48548   8.0129 
 C                     7.90771   4.23484   8.76608 
 H                     8.85864   4.03453   8.2951 
 Fe                    6.9915    5.29231   6.00795 
 N                     5.1599    6.12042   6.50229 
 O                     4.55797   6.89914   6.89799 
 
 AtmSel:  Line="atoms=1-61 notatoms=1,2,3,16,17,18,29,30,31,44,45,46"
 AtmSel:  NamVal=Blocks NAtLst=    49 NIVal=     0 NNoVal=     0:
 AtmSel:  IAtLst=      4      5      6      7      8      9     10     11     12     13
 AtmSel:  IAtLst=     14     15     19     20     21     22     23     24     25     26
 AtmSel:  IAtLst=     27     28     32     33     34     35     36     37     38     39
 AtmSel:  IAtLst=     40     41     42     43     47     48     49     50     51     52
 AtmSel:  IAtLst=     53     54     55     56     57     58     59     60     61
 Add virtual bond connecting atoms H45        and H31        Dist= 3.73D+00.
 NAtoms=     61 NQM=       49 NQMF=      12 NMMI=      0 NMMIF=      0
                NMic=       0 NMicF=      0.
                    Isotopes and Nuclear Properties:
 (Nuclear quadrupole moments (NQMom) in fm**2, nuclear magnetic moments (NMagM)
  in nuclear magnetons)

  Atom         1           2           3           4           5           6           7           8           9          10
 IAtWgt=          12           1           1           1          12           1           1          14          12          12
 AtmWgt=  12.0000000   1.0078250   1.0078250   1.0078250  12.0000000   1.0078250   1.0078250  14.0030740  12.0000000  12.0000000
 NucSpn=           0           1           1           1           0           1           1           2           0           0
 AtZEff=   0.0000000   0.0000000   0.0000000   0.0000000   0.0000000   0.0000000   0.0000000   0.0000000   0.0000000   0.0000000
 NQMom=    0.0000000   0.0000000   0.0000000   0.0000000   0.0000000   0.0000000   0.0000000   2.0440000   0.0000000   0.0000000
 NMagM=    0.0000000   2.7928460   2.7928460   2.7928460   0.0000000   2.7928460   2.7928460   0.4037610   0.0000000   0.0000000
 AtZNuc=   6.0000000   1.0000000   1.0000000   1.0000000   6.0000000   1.0000000   1.0000000   7.0000000   6.0000000   6.0000000

  Atom        11          12          13          14          15          16          17          18          19          20
 IAtWgt=           1          14           1          12           1          12           1           1           1          12
 AtmWgt=   1.0078250  14.0030740   1.0078250  12.0000000   1.0078250  12.0000000   1.0078250   1.0078250   1.0078250  12.0000000
 NucSpn=           1           2           1           0           1           0           1           1           1           0
 AtZEff=   0.0000000   0.0000000   0.0000000   0.0000000   0.0000000   0.0000000   0.0000000   0.0000000   0.0000000   0.0000000
 NQMom=    0.0000000   2.0440000   0.0000000   0.0000000   0.0000000   0.0000000   0.0000000   0.0000000   0.0000000   0.0000000
 NMagM=    2.7928460   0.4037610   2.7928460   0.0000000   2.7928460   0.0000000   2.7928460   2.7928460   2.7928460   0.0000000
 AtZNuc=   1.0000000   7.0000000   1.0000000   6.0000000   1.0000000   6.0000000   1.0000000   1.0000000   1.0000000   6.0000000

  Atom        21          22          23          24          25          26          27          28          29          30
 IAtWgt=           1           1          12           1           1          12          16          16          12           1
 AtmWgt=   1.0078250   1.0078250  12.0000000   1.0078250   1.0078250  12.0000000  15.9949146  15.9949146  12.0000000   1.0078250
 NucSpn=           1           1           0           1           1           0           0           0           0           1
 AtZEff=   0.0000000   0.0000000   0.0000000   0.0000000   0.0000000   0.0000000   0.0000000   0.0000000   0.0000000   0.0000000
 NQMom=    0.0000000   0.0000000   0.0000000   0.0000000   0.0000000   0.0000000   0.0000000   0.0000000   0.0000000   0.0000000
 NMagM=    2.7928460   2.7928460   0.0000000   2.7928460   2.7928460   0.0000000   0.0000000   0.0000000   0.0000000   2.7928460
 AtZNuc=   1.0000000   1.0000000   6.0000000   1.0000000   1.0000000   6.0000000   8.0000000   8.0000000   6.0000000   1.0000000

  Atom        31          32          33          34          35          36          37          38          39          40
 IAtWgt=           1           1          12           1           1          14           1          12          12           1
 AtmWgt=   1.0078250   1.0078250  12.0000000   1.0078250   1.0078250  14.0030740   1.0078250  12.0000000  12.0000000   1.0078250
 NucSpn=           1           1           0           1           1           2           1           0           0           1
 AtZEff=   0.0000000   0.0000000   0.0000000   0.0000000   0.0000000   0.0000000   0.0000000   0.0000000   0.0000000   0.0000000
 NQMom=    0.0000000   0.0000000   0.0000000   0.0000000   0.0000000   2.0440000   0.0000000   0.0000000   0.0000000   0.0000000
 NMagM=    2.7928460   2.7928460   0.0000000   2.7928460   2.7928460   0.4037610   2.7928460   0.0000000   0.0000000   2.7928460
 AtZNuc=   1.0000000   1.0000000   6.0000000   1.0000000   1.0000000   7.0000000   1.0000000   6.0000000   6.0000000   1.0000000

  Atom        41          42          43          44          45          46          47          48          49          50
 IAtWgt=          14          12           1          12           1           1           1          12           1           1
 AtmWgt=  14.0030740  12.0000000   1.0078250  12.0000000   1.0078250   1.0078250   1.0078250  12.0000000   1.0078250   1.0078250
 NucSpn=           2           0           1           0           1           1           1           0           1           1
 AtZEff=   0.0000000   0.0000000   0.0000000   0.0000000   0.0000000   0.0000000   0.0000000   0.0000000   0.0000000   0.0000000
 NQMom=    2.0440000   0.0000000   0.0000000   0.0000000   0.0000000   0.0000000   0.0000000   0.0000000   0.0000000   0.0000000
 NMagM=    0.4037610   0.0000000   2.7928460   0.0000000   2.7928460   2.7928460   2.7928460   0.0000000   2.7928460   2.7928460
 AtZNuc=   7.0000000   6.0000000   1.0000000   6.0000000   1.0000000   1.0000000   1.0000000   6.0000000   1.0000000   1.0000000

  Atom        51          52          53          54          55          56          57          58          59          60
 IAtWgt=          14           1          12          12           1          14          12           1          56          14
 AtmWgt=  14.0030740   1.0078250  12.0000000  12.0000000   1.0078250  14.0030740  12.0000000   1.0078250  55.9349393  14.0030740
 NucSpn=           2           1           0           0           1           2           0           1           0           2
 AtZEff=   0.0000000   0.0000000   0.0000000   0.0000000   0.0000000   0.0000000   0.0000000   0.0000000   0.0000000   0.0000000
 NQMom=    2.0440000   0.0000000   0.0000000   0.0000000   0.0000000   2.0440000   0.0000000   0.0000000   0.0000000   2.0440000
 NMagM=    0.4037610   2.7928460   0.0000000   0.0000000   2.7928460   0.4037610   0.0000000   2.7928460   0.0000000   0.4037610
 AtZNuc=   7.0000000   1.0000000   6.0000000   6.0000000   1.0000000   7.0000000   6.0000000   1.0000000  26.0000000   7.0000000

  Atom        61
 IAtWgt=          16
 AtmWgt=  15.9949146
 NucSpn=           0
 AtZEff=   0.0000000
 NQMom=    0.0000000
 NMagM=    0.0000000
 AtZNuc=   8.0000000
 Leave Link  101 at Wed Nov  4 22:52:08 2015, MaxMem=  1073741824 cpu:         2.6
 (Enter /gwfefs/opt/x86_64/gaussian/09/D.01/g09/l103.exe)

 GradGradGradGradGradGradGradGradGradGradGradGradGradGradGradGradGradGrad
 Berny optimization.
 Initialization pass.
                           ----------------------------
                           !    Initial Parameters    !
                           ! (Angstroms and Degrees)  !
 --------------------------                            --------------------------
 ! Name  Definition              Value          Derivative Info.                !
 --------------------------------------------------------------------------------
 ! X1    R(1,-1)                 7.3814         Frozen                          !
 ! Y1    R(1,-2)                 1.1467         Frozen                          !
 ! Z1    R(1,-3)                 5.0341         Frozen                          !
 ! X2    R(2,-1)                 7.1285         Frozen                          !
 ! Y2    R(2,-2)                 0.2658         Frozen                          !
 ! Z2    R(2,-3)                 5.4336         Frozen                          !
 ! X3    R(3,-1)                 7.9703         Frozen                          !
 ! Y3    R(3,-2)                 0.9468         Frozen                          !
 ! Z3    R(3,-3)                 4.2513         Frozen                          !
 ! X16   R(16,-1)                7.2754         Frozen                          !
 ! Y16   R(16,-2)                3.9696         Frozen                          !
 ! Z16   R(16,-3)                0.2734         Frozen                          !
 ! X17   R(17,-1)                6.8709         Frozen                          !
 ! Y17   R(17,-2)                3.104          Frozen                          !
 ! Z17   R(17,-3)                0.5675         Frozen                          !
 ! X18   R(18,-1)                8.1016         Frozen                          !
 ! Y18   R(18,-2)                3.8244         Frozen                          !
 ! Z18   R(18,-3)               -0.2707         Frozen                          !
 ! X29   R(29,-1)                9.8549         Frozen                          !
 ! Y29   R(29,-2)                8.7775         Frozen                          !
 ! Z29   R(29,-3)               10.2367         Frozen                          !
 ! X30   R(30,-1)               10.71           Frozen                          !
 ! Y30   R(30,-2)                8.3933         Frozen                          !
 ! Z30   R(30,-3)                9.8892         Frozen                          !
 ! X31   R(31,-1)                9.3917         Frozen                          !
 ! Y31   R(31,-2)                8.1592         Frozen                          !
 ! Z31   R(31,-3)               10.8713         Frozen                          !
 ! X44   R(44,-1)                8.8089         Frozen                          !
 ! Y44   R(44,-2)                5.5921         Frozen                          !
 ! Z44   R(44,-3)               11.977          Frozen                          !
 ! X45   R(45,-1)                9.2362         Frozen                          !
 ! Y45   R(45,-2)                6.2517         Frozen                          !
 ! Z45   R(45,-3)               11.3587         Frozen                          !
 ! X46   R(46,-1)                9.3911         Frozen                          !
 ! Y46   R(46,-2)                5.4141         Frozen                          !
 ! Z46   R(46,-3)               12.7704         Frozen                          !
 ! R1    R(1,4)                  1.0925         estimate D2E/DX2                !
 ! R2    R(1,5)                  1.5526         estimate D2E/DX2                !
 ! R3    R(5,6)                  1.0928         estimate D2E/DX2                !
 ! R4    R(5,7)                  1.0973         estimate D2E/DX2                !
 ! R5    R(5,9)                  1.5007         estimate D2E/DX2                !
 ! R6    R(8,9)                  1.3902         estimate D2E/DX2                !
 ! R7    R(8,10)                 1.3275         estimate D2E/DX2                !
 ! R8    R(8,59)                 2.1365         estimate D2E/DX2                !
 ! R9    R(9,14)                 1.3735         estimate D2E/DX2                !
 ! R10   R(10,11)                1.0794         estimate D2E/DX2                !
 ! R11   R(10,12)                1.3494         estimate D2E/DX2                !
 ! R12   R(12,13)                1.0108         estimate D2E/DX2                !
 ! R13   R(12,14)                1.3823         estimate D2E/DX2                !
 ! R14   R(14,15)                1.0792         estimate D2E/DX2                !
 ! R15   R(16,19)                1.1            estimate D2E/DX2                !
 ! R16   R(16,20)                1.5291         estimate D2E/DX2                !
 ! R17   R(20,21)                1.0951         estimate D2E/DX2                !
 ! R18   R(20,22)                1.0985         estimate D2E/DX2                !
 ! R19   R(20,23)                1.5493         estimate D2E/DX2                !
 ! R20   R(23,24)                1.0938         estimate D2E/DX2                !
 ! R21   R(23,25)                1.0968         estimate D2E/DX2                !
 ! R22   R(23,26)                1.5041         estimate D2E/DX2                !
 ! R23   R(26,27)                1.2584         estimate D2E/DX2                !
 ! R24   R(26,28)                1.2972         estimate D2E/DX2                !
 ! R25   R(28,59)                1.9796         estimate D2E/DX2                !
 ! R26   R(29,32)                1.1044         estimate D2E/DX2                !
 ! R27   R(29,33)                1.5348         estimate D2E/DX2                !
 ! R28   R(33,34)                1.0994         estimate D2E/DX2                !
 ! R29   R(33,35)                1.0982         estimate D2E/DX2                !
 ! R30   R(33,38)                1.4896         estimate D2E/DX2                !
 ! R31   R(36,37)                1.0115         estimate D2E/DX2                !
 ! R32   R(36,38)                1.3883         estimate D2E/DX2                !
 ! R33   R(36,39)                1.3528         estimate D2E/DX2                !
 ! R34   R(38,42)                1.364          estimate D2E/DX2                !
 ! R35   R(39,40)                1.0792         estimate D2E/DX2                !
 ! R36   R(39,41)                1.3255         estimate D2E/DX2                !
 ! R37   R(41,42)                1.3827         estimate D2E/DX2                !
 ! R38   R(41,59)                2.1026         estimate D2E/DX2                !
 ! R39   R(42,43)                1.077          estimate D2E/DX2                !
 ! R40   R(44,47)                1.0985         estimate D2E/DX2                !
 ! R41   R(44,48)                1.5485         estimate D2E/DX2                !
 ! R42   R(48,49)                1.0978         estimate D2E/DX2                !
 ! R43   R(48,50)                1.0956         estimate D2E/DX2                !
 ! R44   R(48,53)                1.4948         estimate D2E/DX2                !
 ! R45   R(51,52)                1.0117         estimate D2E/DX2                !
 ! R46   R(51,53)                1.3883         estimate D2E/DX2                !
 ! R47   R(51,54)                1.3553         estimate D2E/DX2                !
 ! R48   R(53,57)                1.3698         estimate D2E/DX2                !
 ! R49   R(54,55)                1.0806         estimate D2E/DX2                !
 ! R50   R(54,56)                1.3245         estimate D2E/DX2                !
 ! R51   R(56,57)                1.3857         estimate D2E/DX2                !
 ! R52   R(57,58)                1.0799         estimate D2E/DX2                !
 ! R53   R(59,60)                2.07           estimate D2E/DX2                !
 ! R54   R(60,61)                1.0608         estimate D2E/DX2                !
 ! A1    A(2,1,4)              112.2639         estimate D2E/DX2                !
 ! A2    A(2,1,5)              106.6831         estimate D2E/DX2                !
 ! A3    A(3,1,4)              110.7235         estimate D2E/DX2                !
 ! A4    A(3,1,5)              107.4816         estimate D2E/DX2                !
 ! A5    A(4,1,5)              112.7502         estimate D2E/DX2                !
 ! A6    A(1,5,6)              110.2019         estimate D2E/DX2                !
 ! A7    A(1,5,7)              108.0293         estimate D2E/DX2                !
 ! A8    A(1,5,9)              114.2402         estimate D2E/DX2                !
 ! A9    A(6,5,7)              106.4848         estimate D2E/DX2                !
 ! A10   A(6,5,9)              109.762          estimate D2E/DX2                !
 ! A11   A(7,5,9)              107.7902         estimate D2E/DX2                !
 ! A12   A(9,8,10)             107.2083         estimate D2E/DX2                !
 ! A13   A(9,8,59)             130.9715         estimate D2E/DX2                !
 ! A14   A(10,8,59)            121.7092         estimate D2E/DX2                !
 ! A15   A(5,9,8)              123.3052         estimate D2E/DX2                !
 ! A16   A(5,9,14)             128.4605         estimate D2E/DX2                !
 ! A17   A(8,9,14)             108.1609         estimate D2E/DX2                !
 ! A18   A(8,10,11)            125.5182         estimate D2E/DX2                !
 ! A19   A(8,10,12)            110.1999         estimate D2E/DX2                !
 ! A20   A(11,10,12)           124.2661         estimate D2E/DX2                !
 ! A21   A(10,12,13)           125.788          estimate D2E/DX2                !
 ! A22   A(10,12,14)           108.0971         estimate D2E/DX2                !
 ! A23   A(13,12,14)           126.1103         estimate D2E/DX2                !
 ! A24   A(9,14,12)            106.3275         estimate D2E/DX2                !
 ! A25   A(9,14,15)            131.6427         estimate D2E/DX2                !
 ! A26   A(12,14,15)           122.0273         estimate D2E/DX2                !
 ! A27   A(17,16,19)           106.7357         estimate D2E/DX2                !
 ! A28   A(17,16,20)           107.6545         estimate D2E/DX2                !
 ! A29   A(18,16,19)           106.2766         estimate D2E/DX2                !
 ! A30   A(18,16,20)           114.8947         estimate D2E/DX2                !
 ! A31   A(19,16,20)           109.3383         estimate D2E/DX2                !
 ! A32   A(16,20,21)           112.2508         estimate D2E/DX2                !
 ! A33   A(16,20,22)           109.2341         estimate D2E/DX2                !
 ! A34   A(16,20,23)           109.8734         estimate D2E/DX2                !
 ! A35   A(21,20,22)           106.62           estimate D2E/DX2                !
 ! A36   A(21,20,23)           109.452          estimate D2E/DX2                !
 ! A37   A(22,20,23)           109.3278         estimate D2E/DX2                !
 ! A38   A(20,23,24)           110.7598         estimate D2E/DX2                !
 ! A39   A(20,23,25)           109.6242         estimate D2E/DX2                !
 ! A40   A(20,23,26)           110.3467         estimate D2E/DX2                !
 ! A41   A(24,23,25)           107.8676         estimate D2E/DX2                !
 ! A42   A(24,23,26)           108.63           estimate D2E/DX2                !
 ! A43   A(25,23,26)           109.5646         estimate D2E/DX2                !
 ! A44   A(23,26,27)           120.9463         estimate D2E/DX2                !
 ! A45   A(23,26,28)           119.0769         estimate D2E/DX2                !
 ! A46   A(27,26,28)           119.6805         estimate D2E/DX2                !
 ! A47   A(26,28,59)            95.7853         estimate D2E/DX2                !
 ! A48   A(30,29,32)           101.7333         estimate D2E/DX2                !
 ! A49   A(30,29,33)           116.1575         estimate D2E/DX2                !
 ! A50   A(31,29,32)           101.2585         estimate D2E/DX2                !
 ! A51   A(31,29,33)           118.5499         estimate D2E/DX2                !
 ! A52   A(32,29,33)           103.4807         estimate D2E/DX2                !
 ! A53   A(29,33,34)           108.6527         estimate D2E/DX2                !
 ! A54   A(29,33,35)           107.9059         estimate D2E/DX2                !
 ! A55   A(29,33,38)           115.9171         estimate D2E/DX2                !
 ! A56   A(34,33,35)           105.5018         estimate D2E/DX2                !
 ! A57   A(34,33,38)           109.3928         estimate D2E/DX2                !
 ! A58   A(35,33,38)           108.9618         estimate D2E/DX2                !
 ! A59   A(37,36,38)           125.8637         estimate D2E/DX2                !
 ! A60   A(37,36,39)           125.2841         estimate D2E/DX2                !
 ! A61   A(38,36,39)           108.8516         estimate D2E/DX2                !
 ! A62   A(33,38,36)           123.7841         estimate D2E/DX2                !
 ! A63   A(33,38,42)           131.4752         estimate D2E/DX2                !
 ! A64   A(36,38,42)           104.7307         estimate D2E/DX2                !
 ! A65   A(36,39,40)           125.3357         estimate D2E/DX2                !
 ! A66   A(36,39,41)           109.737          estimate D2E/DX2                !
 ! A67   A(40,39,41)           124.8943         estimate D2E/DX2                !
 ! A68   A(39,41,42)           106.6756         estimate D2E/DX2                !
 ! A69   A(39,41,59)           124.9007         estimate D2E/DX2                !
 ! A70   A(42,41,59)           128.2426         estimate D2E/DX2                !
 ! A71   A(38,42,41)           110.0037         estimate D2E/DX2                !
 ! A72   A(38,42,43)           128.3147         estimate D2E/DX2                !
 ! A73   A(41,42,43)           121.6796         estimate D2E/DX2                !
 ! A74   A(45,44,47)           107.5257         estimate D2E/DX2                !
 ! A75   A(45,44,48)           113.1714         estimate D2E/DX2                !
 ! A76   A(46,44,47)           107.3052         estimate D2E/DX2                !
 ! A77   A(46,44,48)           107.4882         estimate D2E/DX2                !
 ! A78   A(47,44,48)           110.1635         estimate D2E/DX2                !
 ! A79   A(44,48,49)           108.995          estimate D2E/DX2                !
 ! A80   A(44,48,50)           109.4342         estimate D2E/DX2                !
 ! A81   A(44,48,53)           114.5106         estimate D2E/DX2                !
 ! A82   A(49,48,50)           105.939          estimate D2E/DX2                !
 ! A83   A(49,48,53)           110.0965         estimate D2E/DX2                !
 ! A84   A(50,48,53)           107.5108         estimate D2E/DX2                !
 ! A85   A(52,51,53)           125.8541         estimate D2E/DX2                !
 ! A86   A(52,51,54)           125.3719         estimate D2E/DX2                !
 ! A87   A(53,51,54)           108.7426         estimate D2E/DX2                !
 ! A88   A(48,53,51)           124.3865         estimate D2E/DX2                !
 ! A89   A(48,53,57)           131.0936         estimate D2E/DX2                !
 ! A90   A(51,53,57)           104.3724         estimate D2E/DX2                !
 ! A91   A(51,54,55)           123.7132         estimate D2E/DX2                !
 ! A92   A(51,54,56)           110.3982         estimate D2E/DX2                !
 ! A93   A(55,54,56)           125.8885         estimate D2E/DX2                !
 ! A94   A(54,56,57)           105.967          estimate D2E/DX2                !
 ! A95   A(53,57,56)           110.5091         estimate D2E/DX2                !
 ! A96   A(53,57,58)           128.2622         estimate D2E/DX2                !
 ! A97   A(56,57,58)           121.2156         estimate D2E/DX2                !
 ! A98   A(8,59,28)             99.6596         estimate D2E/DX2                !
 ! A99   A(8,59,41)            108.2019         estimate D2E/DX2                !
 ! A100  A(28,59,41)           134.8778         estimate D2E/DX2                !
 ! A101  A(28,59,60)            76.2062         estimate D2E/DX2                !
 ! A102  A(41,59,60)            76.9561         estimate D2E/DX2                !
 ! A103  A(59,60,61)           152.2308         estimate D2E/DX2                !
 ! A104  L(8,59,60,28,-1)      175.8659         estimate D2E/DX2                !
 ! A105  L(8,59,60,28,-2)      176.8486         estimate D2E/DX2                !
 ! D1    D(2,1,5,6)            -78.4341         estimate D2E/DX2                !
 ! D2    D(2,1,5,7)             37.5258         estimate D2E/DX2                !
 ! D3    D(2,1,5,9)            157.4551         estimate D2E/DX2                !
 ! D4    D(3,1,5,6)            167.5472         estimate D2E/DX2                !
 ! D5    D(3,1,5,7)            -76.4929         estimate D2E/DX2                !
 ! D6    D(3,1,5,9)             43.4364         estimate D2E/DX2                !
 ! D7    D(4,1,5,6)             45.2466         estimate D2E/DX2                !
 ! D8    D(4,1,5,7)            161.2064         estimate D2E/DX2                !
 ! D9    D(4,1,5,9)            -78.8642         estimate D2E/DX2                !
 ! D10   D(1,5,9,8)             93.4288         estimate D2E/DX2                !
 ! D11   D(1,5,9,14)           -83.076          estimate D2E/DX2                !
 ! D12   D(6,5,9,8)            -30.9171         estimate D2E/DX2                !
 ! D13   D(6,5,9,14)           152.5781         estimate D2E/DX2                !
 ! D14   D(7,5,9,8)           -146.508          estimate D2E/DX2                !
 ! D15   D(7,5,9,14)            36.9872         estimate D2E/DX2                !
 ! D16   D(10,8,9,5)          -176.32           estimate D2E/DX2                !
 ! D17   D(10,8,9,14)            0.8002         estimate D2E/DX2                !
 ! D18   D(59,8,9,5)            -0.1921         estimate D2E/DX2                !
 ! D19   D(59,8,9,14)          176.9281         estimate D2E/DX2                !
 ! D20   D(9,8,10,11)          177.8432         estimate D2E/DX2                !
 ! D21   D(9,8,10,12)           -0.7557         estimate D2E/DX2                !
 ! D22   D(59,8,10,11)           1.2792         estimate D2E/DX2                !
 ! D23   D(59,8,10,12)        -177.3197         estimate D2E/DX2                !
 ! D24   D(9,8,59,28)          -74.2223         estimate D2E/DX2                !
 ! D25   D(9,8,59,41)          141.739          estimate D2E/DX2                !
 ! D26   D(10,8,59,28)         101.4291         estimate D2E/DX2                !
 ! D27   D(10,8,59,41)         -42.6097         estimate D2E/DX2                !
 ! D28   D(9,8,60,61)          142.406          estimate D2E/DX2                !
 ! D29   D(10,8,60,61)         -44.33           estimate D2E/DX2                !
 ! D30   D(5,9,14,12)          176.3881         estimate D2E/DX2                !
 ! D31   D(5,9,14,15)           -3.0317         estimate D2E/DX2                !
 ! D32   D(8,9,14,12)           -0.538          estimate D2E/DX2                !
 ! D33   D(8,9,14,15)         -179.9578         estimate D2E/DX2                !
 ! D34   D(8,10,12,13)         179.6832         estimate D2E/DX2                !
 ! D35   D(8,10,12,14)           0.4263         estimate D2E/DX2                !
 ! D36   D(11,10,12,13)          1.0631         estimate D2E/DX2                !
 ! D37   D(11,10,12,14)       -178.1938         estimate D2E/DX2                !
 ! D38   D(10,12,14,9)           0.0853         estimate D2E/DX2                !
 ! D39   D(10,12,14,15)        179.5739         estimate D2E/DX2                !
 ! D40   D(13,12,14,9)        -179.1686         estimate D2E/DX2                !
 ! D41   D(13,12,14,15)          0.32           estimate D2E/DX2                !
 ! D42   D(17,16,20,21)        177.5063         estimate D2E/DX2                !
 ! D43   D(17,16,20,22)         59.4686         estimate D2E/DX2                !
 ! D44   D(17,16,20,23)        -60.4557         estimate D2E/DX2                !
 ! D45   D(18,16,20,21)         52.4598         estimate D2E/DX2                !
 ! D46   D(18,16,20,22)        -65.5778         estimate D2E/DX2                !
 ! D47   D(18,16,20,23)        174.4978         estimate D2E/DX2                !
 ! D48   D(19,16,20,21)        -66.9022         estimate D2E/DX2                !
 ! D49   D(19,16,20,22)        175.0602         estimate D2E/DX2                !
 ! D50   D(19,16,20,23)         55.1359         estimate D2E/DX2                !
 ! D51   D(16,20,23,24)         37.5111         estimate D2E/DX2                !
 ! D52   D(16,20,23,25)        -81.404          estimate D2E/DX2                !
 ! D53   D(16,20,23,26)        157.8386         estimate D2E/DX2                !
 ! D54   D(21,20,23,24)        161.1996         estimate D2E/DX2                !
 ! D55   D(21,20,23,25)         42.2844         estimate D2E/DX2                !
 ! D56   D(21,20,23,26)        -78.473          estimate D2E/DX2                !
 ! D57   D(22,20,23,24)        -82.3562         estimate D2E/DX2                !
 ! D58   D(22,20,23,25)        158.7286         estimate D2E/DX2                !
 ! D59   D(22,20,23,26)         37.9713         estimate D2E/DX2                !
 ! D60   D(20,23,26,27)         56.3229         estimate D2E/DX2                !
 ! D61   D(20,23,26,28)       -117.4052         estimate D2E/DX2                !
 ! D62   D(24,23,26,27)        177.9211         estimate D2E/DX2                !
 ! D63   D(24,23,26,28)          4.193          estimate D2E/DX2                !
 ! D64   D(25,23,26,27)        -64.4701         estimate D2E/DX2                !
 ! D65   D(25,23,26,28)        121.8017         estimate D2E/DX2                !
 ! D66   D(23,26,28,59)        158.3695         estimate D2E/DX2                !
 ! D67   D(27,26,28,59)        -15.4394         estimate D2E/DX2                !
 ! D68   D(26,28,59,8)         -75.4169         estimate D2E/DX2                !
 ! D69   D(26,28,59,41)         52.6541         estimate D2E/DX2                !
 ! D70   D(26,28,59,60)        107.7344         estimate D2E/DX2                !
 ! D71   D(32,29,31,45)       -131.7874         estimate D2E/DX2                !
 ! D72   D(33,29,31,45)        115.9467         estimate D2E/DX2                !
 ! D73   D(30,29,33,34)       -168.2203         estimate D2E/DX2                !
 ! D74   D(30,29,33,35)        -54.2971         estimate D2E/DX2                !
 ! D75   D(30,29,33,38)         68.1603         estimate D2E/DX2                !
 ! D76   D(31,29,33,34)         53.349          estimate D2E/DX2                !
 ! D77   D(31,29,33,35)        167.2722         estimate D2E/DX2                !
 ! D78   D(31,29,33,38)        -70.2704         estimate D2E/DX2                !
 ! D79   D(32,29,33,34)        -57.6892         estimate D2E/DX2                !
 ! D80   D(32,29,33,35)         56.234          estimate D2E/DX2                !
 ! D81   D(32,29,33,38)        178.6914         estimate D2E/DX2                !
 ! D82   D(29,33,38,36)       -160.7713         estimate D2E/DX2                !
 ! D83   D(29,33,38,42)         20.5573         estimate D2E/DX2                !
 ! D84   D(34,33,38,36)         75.9959         estimate D2E/DX2                !
 ! D85   D(34,33,38,42)       -102.6755         estimate D2E/DX2                !
 ! D86   D(35,33,38,36)        -38.8734         estimate D2E/DX2                !
 ! D87   D(35,33,38,42)        142.4552         estimate D2E/DX2                !
 ! D88   D(37,36,38,33)          0.92           estimate D2E/DX2                !
 ! D89   D(37,36,38,42)        179.8908         estimate D2E/DX2                !
 ! D90   D(39,36,38,33)       -179.3416         estimate D2E/DX2                !
 ! D91   D(39,36,38,42)         -0.3708         estimate D2E/DX2                !
 ! D92   D(37,36,39,40)          2.0753         estimate D2E/DX2                !
 ! D93   D(37,36,39,41)       -179.9356         estimate D2E/DX2                !
 ! D94   D(38,36,39,40)       -177.6651         estimate D2E/DX2                !
 ! D95   D(38,36,39,41)          0.3241         estimate D2E/DX2                !
 ! D96   D(33,38,42,41)        179.1483         estimate D2E/DX2                !
 ! D97   D(33,38,42,43)         -1.365          estimate D2E/DX2                !
 ! D98   D(36,38,42,41)          0.2901         estimate D2E/DX2                !
 ! D99   D(36,38,42,43)        179.7768         estimate D2E/DX2                !
 ! D100  D(36,39,41,42)         -0.1368         estimate D2E/DX2                !
 ! D101  D(36,39,41,59)       -175.5843         estimate D2E/DX2                !
 ! D102  D(40,39,41,42)        177.8632         estimate D2E/DX2                !
 ! D103  D(40,39,41,59)          2.4158         estimate D2E/DX2                !
 ! D104  D(39,41,42,38)         -0.1038         estimate D2E/DX2                !
 ! D105  D(39,41,42,43)       -179.6306         estimate D2E/DX2                !
 ! D106  D(59,41,42,38)        175.1417         estimate D2E/DX2                !
 ! D107  D(59,41,42,43)         -4.385          estimate D2E/DX2                !
 ! D108  D(39,41,59,8)         102.5588         estimate D2E/DX2                !
 ! D109  D(39,41,59,28)        -22.6591         estimate D2E/DX2                !
 ! D110  D(39,41,59,60)        -77.4844         estimate D2E/DX2                !
 ! D111  D(42,41,59,8)         -71.8856         estimate D2E/DX2                !
 ! D112  D(42,41,59,28)        162.8965         estimate D2E/DX2                !
 ! D113  D(42,41,59,60)        108.0712         estimate D2E/DX2                !
 ! D114  D(47,44,45,31)         24.2872         estimate D2E/DX2                !
 ! D115  D(48,44,45,31)        146.182          estimate D2E/DX2                !
 ! D116  D(45,44,48,49)        178.0931         estimate D2E/DX2                !
 ! D117  D(45,44,48,50)         62.6617         estimate D2E/DX2                !
 ! D118  D(45,44,48,53)        -58.1044         estimate D2E/DX2                !
 ! D119  D(46,44,48,49)         55.1096         estimate D2E/DX2                !
 ! D120  D(46,44,48,50)        -60.3218         estimate D2E/DX2                !
 ! D121  D(46,44,48,53)        178.912          estimate D2E/DX2                !
 ! D122  D(47,44,48,49)        -61.5017         estimate D2E/DX2                !
 ! D123  D(47,44,48,50)       -176.9331         estimate D2E/DX2                !
 ! D124  D(47,44,48,53)         62.3007         estimate D2E/DX2                !
 ! D125  D(44,48,53,51)        -71.2174         estimate D2E/DX2                !
 ! D126  D(44,48,53,57)        103.6499         estimate D2E/DX2                !
 ! D127  D(49,48,53,51)         51.9944         estimate D2E/DX2                !
 ! D128  D(49,48,53,57)       -133.1382         estimate D2E/DX2                !
 ! D129  D(50,48,53,51)        166.9594         estimate D2E/DX2                !
 ! D130  D(50,48,53,57)        -18.1733         estimate D2E/DX2                !
 ! D131  D(52,51,53,48)         -6.4984         estimate D2E/DX2                !
 ! D132  D(52,51,53,57)        177.4927         estimate D2E/DX2                !
 ! D133  D(54,51,53,48)        175.4582         estimate D2E/DX2                !
 ! D134  D(54,51,53,57)         -0.5507         estimate D2E/DX2                !
 ! D135  D(52,51,54,55)          1.9246         estimate D2E/DX2                !
 ! D136  D(52,51,54,56)       -178.1424         estimate D2E/DX2                !
 ! D137  D(53,51,54,55)        179.9798         estimate D2E/DX2                !
 ! D138  D(53,51,54,56)         -0.0872         estimate D2E/DX2                !
 ! D139  D(48,53,57,56)       -174.6461         estimate D2E/DX2                !
 ! D140  D(48,53,57,58)          4.0319         estimate D2E/DX2                !
 ! D141  D(51,53,57,56)          0.9829         estimate D2E/DX2                !
 ! D142  D(51,53,57,58)        179.661          estimate D2E/DX2                !
 ! D143  D(51,54,56,57)          0.6837         estimate D2E/DX2                !
 ! D144  D(55,54,56,57)       -179.3852         estimate D2E/DX2                !
 ! D145  D(54,56,57,53)         -1.0545         estimate D2E/DX2                !
 ! D146  D(54,56,57,58)       -179.8409         estimate D2E/DX2                !
 ! D147  D(28,59,60,61)       -143.92           estimate D2E/DX2                !
 ! D148  D(41,59,60,61)         -0.5339         estimate D2E/DX2                !
 --------------------------------------------------------------------------------
 Trust Radius=3.00D-01 FncErr=1.00D-07 GrdErr=1.00D-06
 Number of steps in this run=    353 maximum allowed number of steps=    366.
 GradGradGradGradGradGradGradGradGradGradGradGradGradGradGradGradGradGrad

 Leave Link  103 at Wed Nov  4 22:52:08 2015, MaxMem=  1073741824 cpu:         0.7
 (Enter /gwfefs/opt/x86_64/gaussian/09/D.01/g09/l202.exe)
 Symmetry turned off by external request.
 Stoichiometry    C19H31FeN7O3(1+,6)
 Framework group  C1[X(C19H31FeN7O3)]
 Deg. of freedom   177
 Full point group                 C1      NOp   1
                          Input orientation:                          
 ---------------------------------------------------------------------
 Center     Atomic      Atomic             Coordinates (Angstroms)
 Number     Number       Type             X           Y           Z
 ---------------------------------------------------------------------
      1          6           0        7.381433    1.146748    5.034073
      2          1           0        7.128453    0.265796    5.433624
      3          1           0        7.970272    0.946750    4.251275
      4          1           0        6.508949    1.726181    4.723445
      5          6           0        8.246238    1.884031    6.091878
      6          1           0        7.607775    2.317649    6.865480
      7          1           0        8.879203    1.139857    6.591557
      8          7           0        8.785641    4.282984    5.436137
      9          6           0        9.145015    2.942889    5.523386
     10          6           0        9.774625    4.915254    4.816099
     11          1           0        9.787094    5.964564    4.563408
     12          7           0       10.763926    4.049049    4.513214
     13          1           0       11.625022    4.278516    4.036195
     14          6           0       10.385935    2.794458    4.953600
     15          1           0       11.013951    1.927278    4.818608
     16          6           0        7.275421    3.969595    0.273447
     17          1           0        6.870867    3.104013    0.567521
     18          1           0        8.101568    3.824353   -0.270664
     19          1           0        6.545856    4.449046   -0.395749
     20          6           0        7.468313    4.837662    1.517411
     21          1           0        7.950338    5.793277    1.285557
     22          1           0        8.128319    4.316078    2.223884
     23          6           0        6.099324    5.100932    2.193381
     24          1           0        5.461262    4.214409    2.135055
     25          1           0        5.584936    5.920347    1.676758
     26          6           0        6.291473    5.460231    3.641252
     27          8           0        7.023326    6.427498    3.976324
     28          8           0        5.791791    4.686269    4.554550
     29          6           0        9.854882    8.777516   10.236723
     30          1           0       10.709997    8.393288    9.889181
     31          1           0        9.391673    8.159151   10.871313
     32          1           0       10.223101    9.557838   10.926142
     33          6           0        9.006571    9.563169    9.227382
     34          1           0        8.219426   10.102153    9.773802
     35          1           0        9.642664   10.341631    8.785278
     36          7           0        7.927881    9.309145    6.943107
     37          1           0        7.968656   10.286120    6.684391
     38          6           0        8.389667    8.762889    8.132964
     39          6           0        7.416190    8.318556    6.176885
     40          1           0        7.016752    8.442033    5.181941
     41          7           0        7.517929    7.161199    6.814888
     42          6           0        8.119944    7.429733    8.030292
     43          1           0        8.325427    6.649979    8.744243
     44          6           0        8.808880    5.592073   11.976971
     45          1           0        9.236184    6.251677   11.358665
     46          1           0        9.391143    5.414147   12.770396
     47          1           0        7.878336    6.042028   12.348884
     48          6           0        8.511132    4.229912   11.303469
     49          1           0        8.076809    3.550385   12.048303
     50          1           0        9.451955    3.766785   10.986108
     51          7           0        6.265324    4.597269   10.151429
     52          1           0        5.708075    4.688494   10.990864
     53          6           0        7.623227    4.312215   10.103809
     54          6           0        5.795402    4.691450    8.883699
     55          1           0        4.764762    4.906509    8.640540
     56          7           0        6.771902    4.485483    8.012899
     57          6           0        7.907712    4.234845    8.766079
     58          1           0        8.858636    4.034534    8.295096
     59         26           0        6.991496    5.292310    6.007946
     60          7           0        5.159895    6.120418    6.502289
     61          8           0        4.557970    6.899138    6.897988
 ---------------------------------------------------------------------
 Rotational constants (GHZ):      0.1960414      0.1091746      0.0953056
 Leave Link  202 at Wed Nov  4 22:52:08 2015, MaxMem=  1073741824 cpu:         1.5
 (Enter /gwfefs/opt/x86_64/gaussian/09/D.01/g09/l301.exe)
 General basis read from cards:  (5D, 7F)
 Centers:       1      5      9     10     14     16     20     23     26     29
 Centers:      33     38     39     42     44     48     53     54     57      8
 Centers:      12     36     41     51     56     60     27     28     61      2
 Centers:       3      4      6      7     11     13     15     17     18     19
 Centers:      21     22     24     25     30     31     32     34     35     37
 Centers:      40     43     45     46     47     49     50     52     55     58
 6-31G(d)
 ****
 Centers:      59
 Lanl2dz
 ****
 ======================================================================================================
                                       Pseudopotential Parameters
 ======================================================================================================
  Center     Atomic      Valence      Angular      Power
  Number     Number     Electrons     Momentum     of R      Exponent        Coefficient   SO-Coeffient
 ======================================================================================================
    1          6
                                   No pseudopotential on this center.
    2          1
                                   No pseudopotential on this center.
    3          1
                                   No pseudopotential on this center.
    4          1
                                   No pseudopotential on this center.
    5          6
                                   No pseudopotential on this center.
    6          1
                                   No pseudopotential on this center.
    7          1
                                   No pseudopotential on this center.
    8          7
                                   No pseudopotential on this center.
    9          6
                                   No pseudopotential on this center.
   10          6
                                   No pseudopotential on this center.
   11          1
                                   No pseudopotential on this center.
   12          7
                                   No pseudopotential on this center.
   13          1
                                   No pseudopotential on this center.
   14          6
                                   No pseudopotential on this center.
   15          1
                                   No pseudopotential on this center.
   16          6
                                   No pseudopotential on this center.
   17          1
                                   No pseudopotential on this center.
   18          1
                                   No pseudopotential on this center.
   19          1
                                   No pseudopotential on this center.
   20          6
                                   No pseudopotential on this center.
   21          1
                                   No pseudopotential on this center.
   22          1
                                   No pseudopotential on this center.
   23          6
                                   No pseudopotential on this center.
   24          1
                                   No pseudopotential on this center.
   25          1
                                   No pseudopotential on this center.
   26          6
                                   No pseudopotential on this center.
   27          8
                                   No pseudopotential on this center.
   28          8
                                   No pseudopotential on this center.
   29          6
                                   No pseudopotential on this center.
   30          1
                                   No pseudopotential on this center.
   31          1
                                   No pseudopotential on this center.
   32          1
                                   No pseudopotential on this center.
   33          6
                                   No pseudopotential on this center.
   34          1
                                   No pseudopotential on this center.
   35          1
                                   No pseudopotential on this center.
   36          7
                                   No pseudopotential on this center.
   37          1
                                   No pseudopotential on this center.
   38          6
                                   No pseudopotential on this center.
   39          6
                                   No pseudopotential on this center.
   40          1
                                   No pseudopotential on this center.
   41          7
                                   No pseudopotential on this center.
   42          6
                                   No pseudopotential on this center.
   43          1
                                   No pseudopotential on this center.
   44          6
                                   No pseudopotential on this center.
   45          1
                                   No pseudopotential on this center.
   46          1
                                   No pseudopotential on this center.
   47          1
                                   No pseudopotential on this center.
   48          6
                                   No pseudopotential on this center.
   49          1
                                   No pseudopotential on this center.
   50          1
                                   No pseudopotential on this center.
   51          7
                                   No pseudopotential on this center.
   52          1
                                   No pseudopotential on this center.
   53          6
                                   No pseudopotential on this center.
   54          6
                                   No pseudopotential on this center.
   55          1
                                   No pseudopotential on this center.
   56          7
                                   No pseudopotential on this center.
   57          6
                                   No pseudopotential on this center.
   58          1
                                   No pseudopotential on this center.
   59         26           16
                                      D and up 
                                                     1      392.6149787      -10.00000000    0.00000000
                                                     2       71.1756979      -63.26675180    0.00000000
                                                     2       17.7320281      -10.96133380    0.00000000
                                      S - D
                                                     0      126.0571895        3.00000000    0.00000000
                                                     1      138.1264251       18.17291370    0.00000000
                                                     2       54.2098858      339.12311640    0.00000000
                                                     2        9.2837966      317.10680120    0.00000000
                                                     2        8.6289082     -207.34216490    0.00000000
                                      P - D
                                                     0       83.1759490        5.00000000    0.00000000
                                                     1      106.0559938        5.95359300    0.00000000
                                                     2       42.8284937      294.26655270    0.00000000
                                                     2        8.7701805      154.42446350    0.00000000
                                                     2        8.0397818      -95.31642490    0.00000000
   60          7
                                   No pseudopotential on this center.
   61          8
                                   No pseudopotential on this center.
 ======================================================================================================
 Ernie: Thresh=  0.10000D-02 Tol=  0.10000D-05 Strict=F.
 Ernie:  1 primitive shells out of 461 were deleted.
   490 basis functions,   988 primitive gaussians,   521 cartesian basis functions
   119 alpha electrons      114 beta electrons
       nuclear repulsion energy      3467.0391466901 Hartrees.
 IExCor=  402 DFT=T Ex+Corr=B3LYP ExCW=0 ScaHFX=  0.200000
 ScaDFX=  0.800000  0.720000  1.000000  0.810000 ScalE2=  1.000000  1.000000
 IRadAn=      0 IRanWt=     -1 IRanGd=            0 ICorTp=0 IEmpDi=  4
 NAtoms=   61 NActive=   61 NUniq=   61 SFac= 1.00D+00 NAtFMM=   60 NAOKFM=T Big=T
 Integral buffers will be    131072 words long.
 Raffenetti 2 integral format.
 Two-electron integral symmetry is turned off.
 Leave Link  301 at Wed Nov  4 22:52:09 2015, MaxMem=  1073741824 cpu:         2.4
 (Enter /gwfefs/opt/x86_64/gaussian/09/D.01/g09/l302.exe)
 NPDir=0 NMtPBC=     1 NCelOv=     1 NCel=       1 NClECP=     1 NCelD=      1
         NCelK=      1 NCelE2=     1 NClLst=     1 CellRange=     0.0.
 One-electron integrals computed using PRISM.
   1 Symmetry operations used in ECPInt.
 ECPInt:  NShTT=   17391 NPrTT=  106660 LenC2=   14451 LenP2D=   47533.
 LDataN:  DoStor=T MaxTD1= 4 Len=   56
 NBasis=   490 RedAO= T EigKep=  1.12D-03  NBF=   490
 NBsUse=   490 1.00D-06 EigRej= -1.00D+00 NBFU=   490
 Precomputing XC quadrature grid using
 IXCGrd= 4 IRadAn=           0 IRanWt=          -1 IRanGd=           0 AccXCQ= 0.00D+00.
 Generated NRdTot=       0 NPtTot=           0 NUsed=           0 NTot=          32
 NSgBfM=   515   515   515   515   515 MxSgAt=    61 MxSgA2=    61.
 Leave Link  302 at Wed Nov  4 22:52:10 2015, MaxMem=  1073741824 cpu:        12.1
 (Enter /gwfefs/opt/x86_64/gaussian/09/D.01/g09/l303.exe)
 DipDrv:  MaxL=1.
 Leave Link  303 at Wed Nov  4 22:52:10 2015, MaxMem=  1073741824 cpu:         2.2
 (Enter /gwfefs/opt/x86_64/gaussian/09/D.01/g09/l401.exe)
 ExpMin= 2.20D-02 ExpMax= 5.48D+03 ExpMxC= 8.25D+02 IAcc=3 IRadAn=         5 AccDes= 0.00D+00
 Harris functional with IExCor=  402 and IRadAn=       5 diagonalized for initial guess.
 HarFok:  IExCor=  402 AccDes= 0.00D+00 IRadAn=         5 IDoV= 1 UseB2=F ITyADJ=14
 ICtDFT=  3500011 ScaDFX=  1.000000  1.000000  1.000000  1.000000
 FoFCou: FMM=F IPFlag=           0 FMFlag=      100000 FMFlg1=        2001
         NFxFlg=           0 DoJE=T BraDBF=F KetDBF=T FulRan=T
         wScrn=  0.000000 ICntrl=     500 IOpCl=  0 I1Cent=   200000004 NGrid=           0
         NMat0=    1 NMatS0=      1 NMatT0=    0 NMatD0=    1 NMtDS0=    0 NMtDT0=    0
 Symmetry not used in FoFCou.
 Harris En= -1474.67732193120    
 JPrj=0 DoOrth=F DoCkMO=F.
 Initial guess <Sx>= 0.0000 <Sy>= 0.0000 <Sz>= 2.5000 <S**2>= 8.7500 S= 2.5000
 Leave Link  401 at Wed Nov  4 22:52:16 2015, MaxMem=  1073741824 cpu:        61.8
 (Enter /gwfefs/opt/x86_64/gaussian/09/D.01/g09/l502.exe)
 UHF open shell SCF:
 Using DIIS extrapolation, IDIIS=  1040.
 Two-electron integral symmetry not used.
 IVT=      842373 IEndB=      842373 NGot=  1073741824 MDV=  1073188054
 LenX=  1073188054 LenY=  1072916092
 Requested convergence on RMS density matrix=1.00D-08 within 128 cycles.
 Requested convergence on MAX density matrix=1.00D-06.
 Requested convergence on             energy=1.00D-06.
 No special actions if energy rises.
 Fock matrices will be formed incrementally for  20 cycles.

 Cycle   1  Pass 1  IDiag  1:
 FoFJK:  IHMeth= 1 ICntrl=       0 DoSepK=F KAlg= 0 I1Cent=   0 FoldK=F
 IRaf= 990000000 NMat=   1 IRICut=       1 DoRegI=T DoRafI=F ISym2E= 0.
 FoFCou: FMM=T IPFlag=           0 FMFlag=      100000 FMFlg1=        2001
         NFxFlg=           0 DoJE=F BraDBF=F KetDBF=F FulRan=T
         wScrn=  0.000000 ICntrl=       0 IOpCl=  1 I1Cent=           0 NGrid=           0
         NMat0=    1 NMatS0=      1 NMatT0=    0 NMatD0=    1 NMtDS0=    0 NMtDT0=    0
 Symmetry not used in FoFCou.
 FMM levels:  10  Number of levels for PrismC:   9
 E= -1473.95816028642    
 DIIS: error= 2.52D-02 at cycle   1 NSaved=   1.
 NSaved= 1 IEnMin= 1 EnMin= -1473.95816028642     IErMin= 1 ErrMin= 2.52D-02
 ErrMax= 2.52D-02  0.00D+00 EMaxC= 1.00D-01 BMatC= 3.37D+00 BMatP= 3.37D+00
 IDIUse=3 WtCom= 7.48D-01 WtEn= 2.52D-01
 Coeff-Com:  0.100D+01
 Coeff-En:   0.100D+01
 Coeff:      0.100D+01
 Gap=     0.099 Goal=   None    Shift=    0.000
 Gap=     0.144 Goal=   None    Shift=    0.000
 GapD=    0.099 DampG=0.500 DampE=0.250 DampFc=0.1250 IDamp=-1.
 Damping current iteration by 1.25D-01
 RMSDP=5.03D-03 MaxDP=7.48D-01              OVMax= 6.40D-01

 Cycle   2  Pass 1  IDiag  1:
 RMSU=  6.21D-04    CP:  9.94D-01
 E= -1474.11235757741     Delta-E=       -0.154197290990 Rises=F Damp=T
 DIIS: error= 1.86D-02 at cycle   2 NSaved=   2.
 NSaved= 2 IEnMin= 2 EnMin= -1474.11235757741     IErMin= 2 ErrMin= 1.86D-02
 ErrMax= 1.86D-02  0.00D+00 EMaxC= 1.00D-01 BMatC= 1.47D+00 BMatP= 3.37D+00
 IDIUse=3 WtCom= 8.14D-01 WtEn= 1.86D-01
 Coeff-Com: -0.849D+00 0.185D+01
 Coeff-En:   0.000D+00 0.100D+01
 Coeff:     -0.691D+00 0.169D+01
 Gap=     0.227 Goal=   None    Shift=    0.000
 Gap=    -0.023 Goal=   None    Shift=    0.000
 RMSDP=4.03D-03 MaxDP=3.72D-01 DE=-1.54D-01 OVMax= 9.29D-01

 Cycle   3  Pass 1  IDiag  1:
 RMSU=  3.94D-03    CP:  9.62D-01  2.12D+00
 E= -1471.30521654408     Delta-E=        2.807141033327 Rises=F Damp=F
 DIIS: error= 8.27D-02 at cycle   3 NSaved=   3.
 NSaved= 3 IEnMin= 2 EnMin= -1474.11235757741     IErMin= 2 ErrMin= 1.86D-02
 ErrMax= 8.27D-02  0.00D+00 EMaxC= 1.00D-01 BMatC= 1.44D+01 BMatP= 1.47D+00
 IDIUse=2 WtCom= 0.00D+00 WtEn= 1.00D+00
 Coeff-En:   0.000D+00 0.911D+00 0.887D-01
 Coeff:      0.000D+00 0.911D+00 0.887D-01
 Gap=     0.050 Goal=   None    Shift=    0.000
 Gap=     0.065 Goal=   None    Shift=    0.000
 RMSDP=4.05D-03 MaxDP=5.50D-01 DE= 2.81D+00 OVMax= 5.88D-01

 Cycle   4  Pass 1  IDiag  1:
 RMSU=  1.86D-03    CP:  9.69D-01  3.00D+00  1.20D-01
 E= -1474.14436366638     Delta-E=       -2.839147122294 Rises=F Damp=F
 DIIS: error= 3.60D-02 at cycle   4 NSaved=   4.
 NSaved= 4 IEnMin= 4 EnMin= -1474.14436366638     IErMin= 2 ErrMin= 1.86D-02
 ErrMax= 3.60D-02  0.00D+00 EMaxC= 1.00D-01 BMatC= 2.99D+00 BMatP= 1.47D+00
 IDIUse=2 WtCom= 0.00D+00 WtEn= 1.00D+00
 EnCoef did   100 forward-backward iterations
 Coeff-En:   0.376D+00 0.969D-02 0.558D-01 0.559D+00
 Coeff:      0.376D+00 0.969D-02 0.558D-01 0.559D+00
 Gap=     0.096 Goal=   None    Shift=    0.000
 Gap=     0.241 Goal=   None    Shift=    0.000
 RMSDP=2.06D-03 MaxDP=2.45D-01 DE=-2.84D+00 OVMax= 3.28D-01

 Cycle   5  Pass 1  IDiag  1:
 RMSU=  1.11D-03    CP:  9.80D-01  1.80D+00  2.40D-01  3.84D-01
 E= -1474.64442149123     Delta-E=       -0.500057824857 Rises=F Damp=F
 DIIS: error= 1.95D-02 at cycle   5 NSaved=   5.
 NSaved= 5 IEnMin= 5 EnMin= -1474.64442149123     IErMin= 2 ErrMin= 1.86D-02
 ErrMax= 1.95D-02  0.00D+00 EMaxC= 1.00D-01 BMatC= 7.76D-01 BMatP= 1.47D+00
 IDIUse=3 WtCom= 8.05D-01 WtEn= 1.95D-01
 Coeff-Com: -0.404D+00 0.659D+00-0.136D-01 0.160D+00 0.599D+00
 Coeff-En:   0.000D+00 0.000D+00 0.000D+00 0.246D+00 0.754D+00
 Coeff:     -0.325D+00 0.530D+00-0.110D-01 0.177D+00 0.629D+00
 Gap=     0.118 Goal=   None    Shift=    0.000
 Gap=     0.156 Goal=   None    Shift=    0.000
 RMSDP=1.01D-03 MaxDP=1.42D-01 DE=-5.00D-01 OVMax= 2.39D-01

 Cycle   6  Pass 1  IDiag  1:
 RMSU=  6.52D-04    CP:  9.80D-01  2.19D+00  1.28D-01  5.62D-01  5.73D-01
 E= -1474.79511061621     Delta-E=       -0.150689124978 Rises=F Damp=F
 DIIS: error= 5.18D-03 at cycle   6 NSaved=   6.
 NSaved= 6 IEnMin= 6 EnMin= -1474.79511061621     IErMin= 6 ErrMin= 5.18D-03
 ErrMax= 5.18D-03  0.00D+00 EMaxC= 1.00D-01 BMatC= 1.11D-01 BMatP= 7.76D-01
 IDIUse=3 WtCom= 9.48D-01 WtEn= 5.18D-02
 Coeff-Com: -0.619D+00 0.748D+00-0.753D-02-0.564D-01 0.425D+00 0.510D+00
 Coeff-En:   0.000D+00 0.000D+00 0.000D+00 0.000D+00 0.411D-02 0.996D+00
 Coeff:     -0.586D+00 0.709D+00-0.714D-02-0.535D-01 0.403D+00 0.535D+00
 Gap=     0.099 Goal=   None    Shift=    0.000
 Gap=     0.126 Goal=   None    Shift=    0.000
 RMSDP=3.47D-04 MaxDP=2.29D-02 DE=-1.51D-01 OVMax= 5.12D-02

 Cycle   7  Pass 1  IDiag  1:
 RMSU=  2.41D-04    CP:  9.79D-01  2.19D+00  1.39D-01  5.38D-01  7.22D-01
                    CP:  7.29D-01
 E= -1474.81127631772     Delta-E=       -0.016165701504 Rises=F Damp=F
 DIIS: error= 2.55D-03 at cycle   7 NSaved=   7.
 NSaved= 7 IEnMin= 7 EnMin= -1474.81127631772     IErMin= 7 ErrMin= 2.55D-03
 ErrMax= 2.55D-03  0.00D+00 EMaxC= 1.00D-01 BMatC= 4.34D-02 BMatP= 1.11D-01
 IDIUse=3 WtCom= 9.75D-01 WtEn= 2.55D-02
 Coeff-Com: -0.482D+00 0.583D+00-0.731D-03-0.526D-01 0.219D+00 0.321D+00
 Coeff-Com:  0.412D+00
 Coeff-En:   0.000D+00 0.000D+00 0.000D+00 0.000D+00 0.000D+00 0.113D+00
 Coeff-En:   0.887D+00
 Coeff:     -0.470D+00 0.568D+00-0.712D-03-0.512D-01 0.214D+00 0.315D+00
 Coeff:      0.424D+00
 Gap=     0.100 Goal=   None    Shift=    0.000
 Gap=     0.126 Goal=   None    Shift=    0.000
 RMSDP=1.36D-04 MaxDP=1.05D-02 DE=-1.62D-02 OVMax= 1.90D-02

 Cycle   8  Pass 1  IDiag  1:
 RMSU=  1.20D-04    CP:  9.79D-01  2.25D+00  1.34D-01  5.48D-01  7.15D-01
                    CP:  7.79D-01  8.56D-01
 E= -1474.81757900562     Delta-E=       -0.006302687907 Rises=F Damp=F
 DIIS: error= 1.86D-03 at cycle   8 NSaved=   8.
 NSaved= 8 IEnMin= 8 EnMin= -1474.81757900562     IErMin= 8 ErrMin= 1.86D-03
 ErrMax= 1.86D-03  0.00D+00 EMaxC= 1.00D-01 BMatC= 1.74D-02 BMatP= 4.34D-02
 IDIUse=3 WtCom= 9.81D-01 WtEn= 1.86D-02
 Coeff-Com: -0.220D+00 0.276D+00 0.193D-02-0.160D-01 0.399D-02-0.535D-01
 Coeff-Com:  0.124D+00 0.883D+00
 Coeff-En:   0.000D+00 0.000D+00 0.000D+00 0.000D+00 0.000D+00 0.000D+00
 Coeff-En:   0.000D+00 0.100D+01
 Coeff:     -0.216D+00 0.271D+00 0.189D-02-0.157D-01 0.392D-02-0.525D-01
 Coeff:      0.122D+00 0.886D+00
 Gap=     0.103 Goal=   None    Shift=    0.000
 Gap=     0.131 Goal=   None    Shift=    0.000
 RMSDP=1.23D-04 MaxDP=1.29D-02 DE=-6.30D-03 OVMax= 1.82D-02

 Cycle   9  Pass 1  IDiag  1:
 RMSU=  7.27D-05    CP:  9.79D-01  2.31D+00  1.24D-01  5.63D-01  7.09D-01
                    CP:  7.89D-01  1.11D+00  1.35D+00
 E= -1474.82124019796     Delta-E=       -0.003661192339 Rises=F Damp=F
 DIIS: error= 7.89D-04 at cycle   9 NSaved=   9.
 NSaved= 9 IEnMin= 9 EnMin= -1474.82124019796     IErMin= 9 ErrMin= 7.89D-04
 ErrMax= 7.89D-04  0.00D+00 EMaxC= 1.00D-01 BMatC= 3.66D-03 BMatP= 1.74D-02
 IDIUse=3 WtCom= 9.92D-01 WtEn= 7.89D-03
 Coeff-Com: -0.556D-01 0.742D-01 0.367D-03 0.348D-02-0.362D-01-0.122D+00
 Coeff-Com: -0.114D+00 0.530D+00 0.719D+00
 Coeff-En:   0.000D+00 0.000D+00 0.000D+00 0.000D+00 0.000D+00 0.000D+00
 Coeff-En:   0.000D+00 0.000D+00 0.100D+01
 Coeff:     -0.552D-01 0.736D-01 0.365D-03 0.345D-02-0.359D-01-0.121D+00
 Coeff:     -0.113D+00 0.526D+00 0.721D+00
 Gap=     0.104 Goal=   None    Shift=    0.000
 Gap=     0.135 Goal=   None    Shift=    0.000
 RMSDP=7.84D-05 MaxDP=6.86D-03 DE=-3.66D-03 OVMax= 1.21D-02

 Cycle  10  Pass 1  IDiag  1:
 RMSU=  4.32D-05    CP:  9.79D-01  2.36D+00  1.19D-01  5.72D-01  7.03D-01
                    CP:  8.00D-01  1.22D+00  1.72D+00  1.09D+00
 E= -1474.82214765292     Delta-E=       -0.000907454960 Rises=F Damp=F
 DIIS: error= 4.66D-04 at cycle  10 NSaved=  10.
 NSaved=10 IEnMin=10 EnMin= -1474.82214765292     IErMin=10 ErrMin= 4.66D-04
 ErrMax= 4.66D-04  0.00D+00 EMaxC= 1.00D-01 BMatC= 5.50D-04 BMatP= 3.66D-03
 IDIUse=3 WtCom= 9.95D-01 WtEn= 4.66D-03
 Coeff-Com: -0.235D-02 0.343D-02 0.264D-03 0.337D-02-0.115D-01-0.425D-01
 Coeff-Com: -0.110D+00 0.439D-01 0.482D+00 0.633D+00
 Coeff-En:   0.000D+00 0.000D+00 0.000D+00 0.000D+00 0.000D+00 0.000D+00
 Coeff-En:   0.000D+00 0.000D+00 0.000D+00 0.100D+01
 Coeff:     -0.234D-02 0.342D-02 0.262D-03 0.335D-02-0.114D-01-0.423D-01
 Coeff:     -0.109D+00 0.437D-01 0.480D+00 0.635D+00
 Gap=     0.105 Goal=   None    Shift=    0.000
 Gap=     0.135 Goal=   None    Shift=    0.000
 RMSDP=3.84D-05 MaxDP=2.67D-03 DE=-9.07D-04 OVMax= 9.93D-03

 Cycle  11  Pass 1  IDiag  1:
 RMSU=  2.58D-05    CP:  9.78D-01  2.37D+00  1.17D-01  5.75D-01  7.00D-01
                    CP:  8.06D-01  1.26D+00  1.84D+00  1.36D+00  1.02D+00
 E= -1474.82231171722     Delta-E=       -0.000164064304 Rises=F Damp=F
 DIIS: error= 1.88D-04 at cycle  11 NSaved=  11.
 NSaved=11 IEnMin=11 EnMin= -1474.82231171722     IErMin=11 ErrMin= 1.88D-04
 ErrMax= 1.88D-04  0.00D+00 EMaxC= 1.00D-01 BMatC= 5.73D-05 BMatP= 5.50D-04
 IDIUse=3 WtCom= 9.98D-01 WtEn= 1.88D-03
 Coeff-Com: -0.276D-03-0.290D-03 0.302D-03 0.361D-03-0.128D-02-0.921D-02
 Coeff-Com: -0.468D-01-0.290D-01 0.191D+00 0.357D+00 0.538D+00
 Coeff-En:   0.000D+00 0.000D+00 0.000D+00 0.000D+00 0.000D+00 0.000D+00
 Coeff-En:   0.000D+00 0.000D+00 0.000D+00 0.000D+00 0.100D+01
 Coeff:     -0.276D-03-0.290D-03 0.302D-03 0.361D-03-0.128D-02-0.920D-02
 Coeff:     -0.467D-01-0.289D-01 0.190D+00 0.357D+00 0.539D+00
 Gap=     0.105 Goal=   None    Shift=    0.000
 Gap=     0.135 Goal=   None    Shift=    0.000
 RMSDP=1.89D-05 MaxDP=1.90D-03 DE=-1.64D-04 OVMax= 6.89D-03

 Cycle  12  Pass 1  IDiag  1:
 RMSU=  1.27D-05    CP:  9.78D-01  2.37D+00  1.17D-01  5.74D-01  7.00D-01
                    CP:  8.07D-01  1.26D+00  1.86D+00  1.42D+00  1.24D+00
                    CP:  1.33D+00
 E= -1474.82234994877     Delta-E=       -0.000038231541 Rises=F Damp=F
 DIIS: error= 1.87D-04 at cycle  12 NSaved=  12.
 NSaved=12 IEnMin=12 EnMin= -1474.82234994877     IErMin=12 ErrMin= 1.87D-04
 ErrMax= 1.87D-04  0.00D+00 EMaxC= 1.00D-01 BMatC= 1.45D-05 BMatP= 5.73D-05
 IDIUse=3 WtCom= 9.98D-01 WtEn= 1.87D-03
 Coeff-Com: -0.135D-02 0.130D-02-0.152D-04-0.747D-03 0.220D-02 0.181D-02
 Coeff-Com:  0.263D-03-0.845D-02 0.749D-03 0.290D-01 0.203D+00 0.773D+00
 Coeff-En:   0.000D+00 0.000D+00 0.000D+00 0.000D+00 0.000D+00 0.000D+00
 Coeff-En:   0.000D+00 0.000D+00 0.000D+00 0.000D+00 0.000D+00 0.100D+01
 Coeff:     -0.135D-02 0.129D-02-0.152D-04-0.746D-03 0.220D-02 0.181D-02
 Coeff:      0.263D-03-0.843D-02 0.748D-03 0.289D-01 0.202D+00 0.773D+00
 Gap=     0.105 Goal=   None    Shift=    0.000
 Gap=     0.135 Goal=   None    Shift=    0.000
 RMSDP=2.34D-05 MaxDP=2.56D-03 DE=-3.82D-05 OVMax= 9.34D-03

 Cycle  13  Pass 1  IDiag  1:
 RMSU=  6.05D-06    CP:  9.78D-01  2.37D+00  1.18D-01  5.74D-01  7.01D-01
                    CP:  8.09D-01  1.27D+00  1.88D+00  1.50D+00  1.48D+00
                    CP:  1.97D+00  1.74D+00
 E= -1474.82238635064     Delta-E=       -0.000036401872 Rises=F Damp=F
 DIIS: error= 1.82D-04 at cycle  13 NSaved=  13.
 NSaved=13 IEnMin=13 EnMin= -1474.82238635064     IErMin=13 ErrMin= 1.82D-04
 ErrMax= 1.82D-04  0.00D+00 EMaxC= 1.00D-01 BMatC= 8.49D-06 BMatP= 1.45D-05
 IDIUse=3 WtCom= 9.98D-01 WtEn= 1.82D-03
 Coeff-Com:  0.768D-04 0.131D-04-0.791D-04-0.232D-03 0.641D-03 0.782D-03
 Coeff-Com:  0.106D-01 0.972D-02-0.459D-01-0.931D-01-0.107D+00 0.248D+00
 Coeff-Com:  0.977D+00
 Coeff-En:   0.000D+00 0.000D+00 0.000D+00 0.000D+00 0.000D+00 0.000D+00
 Coeff-En:   0.000D+00 0.000D+00 0.000D+00 0.000D+00 0.000D+00 0.000D+00
 Coeff-En:   0.100D+01
 Coeff:      0.767D-04 0.131D-04-0.790D-04-0.231D-03 0.640D-03 0.780D-03
 Coeff:      0.106D-01 0.971D-02-0.458D-01-0.929D-01-0.107D+00 0.248D+00
 Coeff:      0.977D+00
 Gap=     0.105 Goal=   None    Shift=    0.000
 Gap=     0.135 Goal=   None    Shift=    0.000
 RMSDP=3.25D-05 MaxDP=3.63D-03 DE=-3.64D-05 OVMax= 1.33D-02

 Cycle  14  Pass 1  IDiag  1:
 RMSU=  4.11D-06    CP:  9.78D-01  2.38D+00  1.18D-01  5.74D-01  7.00D-01
                    CP:  8.10D-01  1.28D+00  1.91D+00  1.61D+00  1.81D+00
                    CP:  2.83D+00  2.88D+00  1.95D+00
 E= -1474.82243212719     Delta-E=       -0.000045776547 Rises=F Damp=F
 DIIS: error= 1.81D-04 at cycle  14 NSaved=  14.
 NSaved=14 IEnMin=14 EnMin= -1474.82243212719     IErMin=14 ErrMin= 1.81D-04
 ErrMax= 1.81D-04  0.00D+00 EMaxC= 1.00D-01 BMatC= 7.37D-06 BMatP= 8.49D-06
 IDIUse=3 WtCom= 9.98D-01 WtEn= 1.81D-03
 Coeff-Com: -0.585D-04 0.339D-03 0.365D-04 0.154D-03-0.890D-03-0.753D-03
 Coeff-Com:  0.752D-02 0.143D-01-0.302D-01-0.869D-01-0.208D+00-0.301D+00
 Coeff-Com:  0.661D+00 0.944D+00
 Coeff-En:   0.000D+00 0.000D+00 0.000D+00 0.000D+00 0.000D+00 0.000D+00
 Coeff-En:   0.000D+00 0.000D+00 0.000D+00 0.000D+00 0.000D+00 0.000D+00
 Coeff-En:   0.000D+00 0.100D+01
 Coeff:     -0.584D-04 0.338D-03 0.365D-04 0.154D-03-0.888D-03-0.751D-03
 Coeff:      0.751D-02 0.142D-01-0.302D-01-0.868D-01-0.207D+00-0.300D+00
 Coeff:      0.660D+00 0.944D+00
 Gap=     0.105 Goal=   None    Shift=    0.000
 Gap=     0.135 Goal=   None    Shift=    0.000
 RMSDP=4.40D-05 MaxDP=4.97D-03 DE=-4.58D-05 OVMax= 1.82D-02

 Cycle  15  Pass 1  IDiag  1:
 RMSU=  3.17D-05    CP:  9.78D-01  2.38D+00  1.18D-01  5.73D-01  6.99D-01
                    CP:  8.12D-01  1.29D+00  1.96D+00  1.76D+00  2.25D+00
                    CP:  3.00D+00  3.00D+00  3.00D+00  2.15D+00
 E= -1474.82248907824     Delta-E=       -0.000056951057 Rises=F Damp=F
 DIIS: error= 1.73D-04 at cycle  15 NSaved=  15.
 NSaved=15 IEnMin=15 EnMin= -1474.82248907824     IErMin=15 ErrMin= 1.73D-04
 ErrMax= 1.73D-04  0.00D+00 EMaxC= 1.00D-01 BMatC= 6.19D-06 BMatP= 7.37D-06
 IDIUse=3 WtCom= 9.98D-01 WtEn= 1.73D-03
 Coeff-Com: -0.436D-03 0.653D-03 0.430D-04 0.293D-03-0.825D-03-0.132D-02
 Coeff-Com: -0.272D-02 0.425D-02 0.148D-01 0.560D-02-0.777D-01-0.410D+00
 Coeff-Com: -0.231D+00 0.700D+00 0.999D+00
 Coeff-En:   0.000D+00 0.000D+00 0.000D+00 0.000D+00 0.000D+00 0.000D+00
 Coeff-En:   0.000D+00 0.000D+00 0.000D+00 0.000D+00 0.000D+00 0.000D+00
 Coeff-En:   0.000D+00 0.000D+00 0.100D+01
 Coeff:     -0.435D-03 0.651D-03 0.429D-04 0.292D-03-0.824D-03-0.131D-02
 Coeff:     -0.271D-02 0.424D-02 0.148D-01 0.559D-02-0.776D-01-0.409D+00
 Coeff:     -0.231D+00 0.699D+00 0.999D+00
 Gap=     0.105 Goal=   None    Shift=    0.000
 Gap=     0.135 Goal=   None    Shift=    0.000
 RMSDP=5.60D-05 MaxDP=6.35D-03 DE=-5.70D-05 OVMax= 2.35D-02

 Cycle  16  Pass 1  IDiag  1:
 RMSU=  1.01D-05    CP:  9.78D-01  2.38D+00  1.18D-01  5.73D-01  6.98D-01
                    CP:  8.15D-01  1.31D+00  2.01D+00  1.95D+00  2.82D+00
                    CP:  3.00D+00  3.00D+00  3.00D+00  3.00D+00  2.46D+00
 E= -1474.82255452612     Delta-E=       -0.000065447880 Rises=F Damp=F
 DIIS: error= 1.67D-04 at cycle  16 NSaved=  16.
 NSaved=16 IEnMin=16 EnMin= -1474.82255452612     IErMin=16 ErrMin= 1.67D-04
 ErrMax= 1.67D-04  0.00D+00 EMaxC= 1.00D-01 BMatC= 5.12D-06 BMatP= 6.19D-06
 IDIUse=3 WtCom= 9.98D-01 WtEn= 1.67D-03
 Coeff-Com:  0.149D-04-0.154D-03 0.267D-05 0.107D-03-0.570D-04-0.167D-02
 Coeff-Com: -0.114D-01-0.793D-02 0.470D-01 0.962D-01 0.147D+00 0.708D-02
 Coeff-Com: -0.877D+00-0.501D+00 0.806D+00 0.130D+01
 Coeff-En:   0.000D+00 0.000D+00 0.000D+00 0.000D+00 0.000D+00 0.000D+00
 Coeff-En:   0.000D+00 0.000D+00 0.000D+00 0.000D+00 0.000D+00 0.000D+00
 Coeff-En:   0.000D+00 0.000D+00 0.000D+00 0.100D+01
 Coeff:      0.149D-04-0.154D-03 0.266D-05 0.107D-03-0.569D-04-0.167D-02
 Coeff:     -0.113D-01-0.792D-02 0.469D-01 0.960D-01 0.147D+00 0.707D-02
 Coeff:     -0.875D+00-0.500D+00 0.805D+00 0.129D+01
 Gap=     0.106 Goal=   None    Shift=    0.000
 Gap=     0.135 Goal=   None    Shift=    0.000
 RMSDP=8.95D-05 MaxDP=1.02D-02 DE=-6.54D-05 OVMax= 3.81D-02

 Cycle  17  Pass 1  IDiag  1:
 RMSU=  6.43D-05    CP:  9.78D-01  2.38D+00  1.19D-01  5.71D-01  6.96D-01
                    CP:  8.17D-01  1.33D+00  2.11D+00  2.24D+00  3.00D+00
                    CP:  3.00D+00  3.00D+00  3.00D+00  3.00D+00  3.00D+00
                    CP:  3.00D+00
 E= -1474.82264552332     Delta-E=       -0.000090997193 Rises=F Damp=F
 DIIS: error= 1.49D-04 at cycle  17 NSaved=  17.
 NSaved=17 IEnMin=17 EnMin= -1474.82264552332     IErMin=17 ErrMin= 1.49D-04
 ErrMax= 1.49D-04  0.00D+00 EMaxC= 1.00D-01 BMatC= 4.21D-06 BMatP= 5.12D-06
 IDIUse=3 WtCom= 9.99D-01 WtEn= 1.49D-03
 Coeff-Com: -0.241D-03 0.142D-03-0.321D-04-0.159D-03 0.642D-03-0.934D-03
 Coeff-Com: -0.529D-02-0.263D-02 0.216D-01 0.513D-01 0.128D+00 0.287D+00
 Coeff-Com: -0.371D+00-0.807D+00-0.162D+00 0.879D+00 0.982D+00
 Coeff-En:   0.000D+00 0.000D+00 0.000D+00 0.000D+00 0.000D+00 0.000D+00
 Coeff-En:   0.000D+00 0.000D+00 0.000D+00 0.000D+00 0.000D+00 0.000D+00
 Coeff-En:   0.000D+00 0.000D+00 0.000D+00 0.000D+00 0.100D+01
 Coeff:     -0.240D-03 0.142D-03-0.321D-04-0.158D-03 0.641D-03-0.932D-03
 Coeff:     -0.528D-02-0.262D-02 0.216D-01 0.512D-01 0.128D+00 0.286D+00
 Coeff:     -0.371D+00-0.806D+00-0.162D+00 0.877D+00 0.982D+00
 Gap=     0.106 Goal=   None    Shift=    0.000
 Gap=     0.134 Goal=   None    Shift=    0.000
 RMSDP=7.47D-05 MaxDP=8.41D-03 DE=-9.10D-05 OVMax= 3.22D-02

 Cycle  18  Pass 1  IDiag  1:
 RMSU=  1.99D-05    CP:  9.78D-01  2.38D+00  1.20D-01  5.70D-01  6.93D-01
                    CP:  8.19D-01  1.35D+00  2.19D+00  2.48D+00  3.00D+00
                    CP:  3.00D+00  3.00D+00  3.00D+00  3.00D+00  3.00D+00
                    CP:  3.00D+00  2.07D+00
 E= -1474.82271024498     Delta-E=       -0.000064721666 Rises=F Damp=F
 DIIS: error= 1.34D-04 at cycle  18 NSaved=  18.
 NSaved=18 IEnMin=18 EnMin= -1474.82271024498     IErMin=18 ErrMin= 1.34D-04
 ErrMax= 1.34D-04  0.00D+00 EMaxC= 1.00D-01 BMatC= 3.24D-06 BMatP= 4.21D-06
 IDIUse=3 WtCom= 9.99D-01 WtEn= 1.34D-03
 Coeff-Com: -0.837D-03 0.108D-02-0.273D-04-0.195D-03 0.601D-03 0.504D-03
 Coeff-Com:  0.716D-02 0.951D-02-0.252D-01-0.588D-01-0.661D-01 0.151D+00
 Coeff-Com:  0.532D+00-0.152D-01-0.764D+00-0.540D+00 0.554D+00 0.121D+01
 Coeff-En:   0.000D+00 0.000D+00 0.000D+00 0.000D+00 0.000D+00 0.000D+00
 Coeff-En:   0.000D+00 0.000D+00 0.000D+00 0.000D+00 0.000D+00 0.000D+00
 Coeff-En:   0.000D+00 0.000D+00 0.000D+00 0.000D+00 0.000D+00 0.100D+01
 Coeff:     -0.836D-03 0.108D-02-0.272D-04-0.194D-03 0.600D-03 0.504D-03
 Coeff:      0.715D-02 0.950D-02-0.252D-01-0.587D-01-0.660D-01 0.151D+00
 Coeff:      0.531D+00-0.151D-01-0.763D+00-0.539D+00 0.553D+00 0.121D+01
 Gap=     0.106 Goal=   None    Shift=    0.000
 Gap=     0.134 Goal=   None    Shift=    0.000
 RMSDP=7.50D-05 MaxDP=8.35D-03 DE=-6.47D-05 OVMax= 3.28D-02

 Cycle  19  Pass 1  IDiag  1:
 RMSU=  9.90D-06    CP:  9.78D-01  2.39D+00  1.22D-01  5.68D-01  6.91D-01
                    CP:  8.20D-01  1.37D+00  2.26D+00  2.72D+00  3.00D+00
                    CP:  3.00D+00  3.00D+00  3.00D+00  3.00D+00  3.00D+00
                    CP:  3.00D+00  3.00D+00  2.20D+00
 E= -1474.82276636806     Delta-E=       -0.000056123077 Rises=F Damp=F
 DIIS: error= 1.17D-04 at cycle  19 NSaved=  19.
 NSaved=19 IEnMin=19 EnMin= -1474.82276636806     IErMin=19 ErrMin= 1.17D-04
[...]
   R37        2.61288   0.00001   0.00038  -0.00015   0.00033   2.61321
   R38        4.00617  -0.00027  -0.00313  -0.00100  -0.00351   4.00266
   R39        2.03530  -0.00001  -0.00005  -0.00002  -0.00005   2.03524
   R40        2.07576   0.00000   0.00002  -0.00008  -0.00001   2.07574
   R41        2.92716  -0.00001  -0.00014   0.00020  -0.00006   2.92710
   R42        2.07462   0.00000   0.00005  -0.00002   0.00004   2.07467
   R43        2.07037   0.00000   0.00002  -0.00002   0.00001   2.07038
   R44        2.82385   0.00011   0.00020   0.00018   0.00027   2.82412
   R45        1.91172   0.00001   0.00001   0.00001   0.00001   1.91173
   R46        2.62368  -0.00006  -0.00035   0.00001  -0.00034   2.62334
   R47        2.56068   0.00010   0.00021   0.00004   0.00022   2.56090
   R48        2.58820   0.00016   0.00033   0.00012   0.00038   2.58858
   R49        2.04084  -0.00002  -0.00005   0.00001  -0.00005   2.04079
   R50        2.50280  -0.00002  -0.00002  -0.00007  -0.00005   2.50275
   R51        2.61860   0.00000  -0.00002   0.00005  -0.00001   2.61859
   R52        2.04038  -0.00001  -0.00004   0.00003  -0.00003   2.04036
   R53        5.55625   0.00018   0.00104   0.02310   0.01029   5.56654
   R54        2.18397   0.00031   0.00015  -0.00019   0.00008   2.18405
    A1        1.95768  -0.00003   0.00080  -0.00016   0.00070   1.95838
    A2        1.86392  -0.00001  -0.00153   0.00000  -0.00153   1.86239
    A3        1.92927   0.00000   0.00074  -0.00018   0.00069   1.92996
    A4        1.88404  -0.00001  -0.00073   0.00030  -0.00058   1.88346
    A5        1.96349   0.00002   0.00057   0.00006   0.00058   1.96408
    A6        1.92208  -0.00005  -0.00010  -0.00057  -0.00031   1.92177
    A7        1.88539   0.00000  -0.00113   0.00043  -0.00094   1.88445
    A8        1.99823   0.00002   0.00089  -0.00013   0.00078   1.99901
    A9        1.85782   0.00001   0.00022  -0.00007   0.00019   1.85801
   A10        1.91240   0.00002   0.00094   0.00036   0.00109   1.91349
   A11        1.88210   0.00001  -0.00092   0.00000  -0.00090   1.88120
   A12        1.86974   0.00007  -0.00010   0.00026   0.00001   1.86974
   A13        2.28616   0.00004   0.00192   0.00085   0.00227   2.28843
   A14        2.12145  -0.00011  -0.00075  -0.00055  -0.00095   2.12050
   A15        2.15207   0.00009   0.00123   0.00027   0.00132   2.15339
   A16        2.24157  -0.00005  -0.00109  -0.00020  -0.00116   2.24041
   A17        1.88870  -0.00003  -0.00017  -0.00012  -0.00021   1.88849
   A18        2.19085   0.00002  -0.00003  -0.00003  -0.00004   2.19081
   A19        1.92476  -0.00002   0.00029  -0.00020   0.00021   1.92497
   A20        2.16722   0.00000  -0.00025   0.00024  -0.00014   2.16708
   A21        2.19603  -0.00001   0.00007  -0.00010   0.00003   2.19606
   A22        1.88602  -0.00003  -0.00028   0.00003  -0.00027   1.88575
   A23        2.20108   0.00004   0.00021   0.00007   0.00024   2.20131
   A24        1.85545   0.00001   0.00026   0.00002   0.00026   1.85571
   A25        2.29800  -0.00004  -0.00050  -0.00009  -0.00054   2.29746
   A26        2.12972   0.00003   0.00024   0.00006   0.00027   2.12999
   A27        1.86213   0.00001   0.00005   0.00006   0.00009   1.86222
   A28        1.87192  -0.00002   0.00001   0.00038   0.00016   1.87208
   A29        1.85484  -0.00003  -0.00067   0.00025  -0.00058   1.85426
   A30        2.01425  -0.00001   0.00046  -0.00084   0.00012   2.01436
   A31        1.90667   0.00004   0.00012   0.00021   0.00021   1.90688
   A32        1.96089  -0.00002   0.00036  -0.00027   0.00028   1.96116
   A33        1.90749  -0.00002  -0.00005   0.00002  -0.00005   1.90744
   A34        1.90960   0.00010   0.00024   0.00050   0.00042   1.91001
   A35        1.86174   0.00004   0.00008   0.00012   0.00013   1.86187
   A36        1.91352  -0.00007  -0.00074  -0.00004  -0.00075   1.91277
   A37        1.90968  -0.00003   0.00009  -0.00035  -0.00004   1.90963
   A38        1.92876   0.00005   0.00020   0.00031   0.00032   1.92909
   A39        1.91377  -0.00005  -0.00045  -0.00012  -0.00048   1.91328
   A40        1.93493  -0.00014  -0.00128  -0.00080  -0.00162   1.93331
   A41        1.88172   0.00002   0.00037   0.00041   0.00054   1.88226
   A42        1.89304   0.00004   0.00064   0.00001   0.00064   1.89368
   A43        1.91069   0.00009   0.00056   0.00022   0.00067   1.91137
   A44        2.11257  -0.00004   0.00002  -0.00053  -0.00015   2.11242
   A45        2.07780  -0.00001   0.00030  -0.00007   0.00019   2.07799
   A46        2.08852   0.00005  -0.00037   0.00066  -0.00007   2.08845
   A47        1.66720   0.00013  -0.00022   0.00038   0.00000   1.66720
   A48        1.77800   0.00001   0.00038  -0.00018   0.00029   1.77829
   A49        2.02168   0.00001   0.00061   0.00026   0.00072   2.02240
   A50        1.77040   0.00001   0.00042  -0.00025   0.00034   1.77074
   A51        2.07021  -0.00001  -0.00146   0.00024  -0.00138   2.06883
   A52        1.80718  -0.00002   0.00044  -0.00029   0.00033   1.80751
   A53        1.89651   0.00002  -0.00062   0.00025  -0.00053   1.89597
   A54        1.88091   0.00003   0.00059   0.00023   0.00068   1.88159
   A55        2.02849  -0.00005   0.00041  -0.00066   0.00017   2.02866
   A56        1.84090  -0.00001  -0.00008   0.00002  -0.00007   1.84083
   A57        1.90725   0.00002  -0.00033   0.00029  -0.00023   1.90703
   A58        1.90059   0.00000   0.00000  -0.00007  -0.00003   1.90057
   A59        2.19621   0.00001  -0.00004   0.00012   0.00000   2.19622
   A60        2.18716   0.00000  -0.00012   0.00010  -0.00008   2.18708
   A61        1.89979  -0.00001   0.00017  -0.00021   0.00009   1.89987
   A62        2.15663  -0.00003  -0.00038   0.00006  -0.00037   2.15626
   A63        2.29939  -0.00004   0.00030  -0.00024   0.00023   2.29962
   A64        1.82689   0.00007   0.00005   0.00018   0.00012   1.82701
   A65        2.18711   0.00002   0.00001   0.00005   0.00003   2.18714
   A66        1.91595   0.00002   0.00007   0.00008   0.00011   1.91606
   A67        2.17960  -0.00004  -0.00004  -0.00017  -0.00011   2.17950
   A68        1.86122  -0.00005  -0.00009  -0.00008  -0.00012   1.86110
   A69        2.17353  -0.00012  -0.00121  -0.00047  -0.00142   2.17210
   A70        2.24411   0.00017   0.00147   0.00070   0.00177   2.24588
   A71        1.92090  -0.00003  -0.00020   0.00003  -0.00019   1.92071
   A72        2.23898   0.00004   0.00001   0.00019   0.00009   2.23907
   A73        2.12329  -0.00001   0.00018  -0.00023   0.00009   2.12338
   A74        1.87775   0.00016   0.00087   0.00004   0.00088   1.87864
   A75        1.97917  -0.00050  -0.00193  -0.00044  -0.00211   1.97706
   A76        1.87336  -0.00004  -0.00010   0.00011  -0.00005   1.87330
   A77        1.87040   0.00019   0.00022   0.00055   0.00044   1.87084
   A78        1.92267   0.00015   0.00102  -0.00023   0.00093   1.92360
   A79        1.89961   0.00012   0.00105   0.00009   0.00109   1.90069
   A80        1.91029  -0.00001  -0.00061  -0.00004  -0.00062   1.90966
   A81        2.00084  -0.00018  -0.00030  -0.00013  -0.00036   2.00049
   A82        1.84851  -0.00001   0.00002   0.00015   0.00008   1.84859
   A83        1.92055   0.00006   0.00017  -0.00018   0.00009   1.92064
   A84        1.87792   0.00003  -0.00034   0.00014  -0.00028   1.87764
   A85        2.19626   0.00004   0.00016   0.00009   0.00020   2.19646
   A86        2.18836   0.00003  -0.00017   0.00014  -0.00011   2.18824
   A87        1.89801  -0.00007   0.00002  -0.00025  -0.00008   1.89793
   A88        2.17027  -0.00012   0.00040  -0.00089   0.00004   2.17031
   A89        2.28835   0.00014  -0.00033   0.00090   0.00003   2.28838
   A90        1.82173  -0.00002   0.00000  -0.00002  -0.00001   1.82173
   A91        2.16185  -0.00010  -0.00024  -0.00020  -0.00032   2.16153
   A92        1.92659   0.00015   0.00004   0.00046   0.00022   1.92681
   A93        2.19473  -0.00005   0.00020  -0.00026   0.00010   2.19483
   A94        1.84976  -0.00013  -0.00006  -0.00039  -0.00022   1.84954
   A95        1.92845   0.00008  -0.00002   0.00025   0.00008   1.92853
   A96        2.23978  -0.00006  -0.00040  -0.00015  -0.00046   2.23932
   A97        2.11467  -0.00002   0.00038  -0.00006   0.00035   2.11502
   A98        1.70150  -0.00012  -0.00225   0.00123  -0.00176   1.69974
   A99        1.83097  -0.00001  -0.00037   0.00196   0.00036   1.83133
   A100       2.40901   0.00012   0.00281  -0.00282   0.00176   2.41077
   A101       1.31849   0.00010   0.00233  -0.00344   0.00105   1.31953
   A102       1.38633   0.00004   0.00238  -0.00073   0.00203   1.38836
   A103       3.06897   0.00000   0.00240   0.00175   0.00255   3.07152
   A104       3.01999  -0.00002   0.00007  -0.00221  -0.00071   3.01928
   A105       3.18445  -0.00002  -0.00348   0.00088  -0.00312   3.18133
    D1       -1.34221   0.00005   0.00392  -0.00049   0.00374  -1.33847
    D2        0.68010   0.00003   0.00349  -0.00065   0.00327   0.68337
    D3        2.77701   0.00005   0.00208  -0.00042   0.00195   2.77896
    D4        2.94622   0.00004   0.00501  -0.00064   0.00476   2.95098
    D5       -1.31466   0.00002   0.00458  -0.00079   0.00429  -1.31037
    D6        0.78225   0.00004   0.00317  -0.00056   0.00297   0.78522
    D7        0.81288   0.00002   0.00422  -0.00066   0.00392   0.81680
    D8        2.83518   0.00000   0.00379  -0.00081   0.00345   2.83863
    D9       -1.35109   0.00003   0.00238  -0.00059   0.00213  -1.34896
   D10        1.65262   0.00002  -0.01146  -0.00270  -0.01254   1.64008
   D11       -1.43957   0.00001  -0.01053  -0.00153  -0.01113  -1.45070
   D12       -0.51650   0.00007  -0.01273  -0.00213  -0.01358  -0.53009
   D13        2.67450   0.00005  -0.01180  -0.00096  -0.01217   2.66233
   D14       -2.53182   0.00005  -0.01298  -0.00224  -0.01389  -2.54571
   D15        0.65918   0.00003  -0.01205  -0.00106  -0.01247   0.64670
   D16       -3.08710   0.00001   0.00084   0.00088   0.00122  -3.08587
   D17        0.01376   0.00002   0.00004  -0.00009   0.00002   0.01378
   D18       -0.06290   0.00006   0.01265   0.00644   0.01525  -0.04764
   D19        3.03796   0.00007   0.01186   0.00547   0.01405   3.05201
   D20        3.10103   0.00003   0.00119   0.00036   0.00132   3.10236
   D21       -0.01289  -0.00001   0.00013   0.00009   0.00015  -0.01274
   D22        0.06337  -0.00002  -0.00947  -0.00467  -0.01132   0.05205
   D23       -3.05055  -0.00006  -0.01053  -0.00494  -0.01249  -3.06304
   D24       -1.23992  -0.00007  -0.00873  -0.00692  -0.01144  -1.25136
   D25        2.52669  -0.00013  -0.01048  -0.00550  -0.01263   2.51405
   D26        1.76995  -0.00001   0.00461  -0.00062   0.00438   1.77433
   D27       -0.74663  -0.00006   0.00286   0.00080   0.00319  -0.74344
   D28       -2.96871   0.00003   0.01059   0.03461   0.02442  -2.94429
   D29       -0.06771   0.00009   0.02452   0.03862   0.04002  -0.02769
   D30        3.08877  -0.00001  -0.00098  -0.00097  -0.00138   3.08739
   D31       -0.04637   0.00002   0.00026  -0.00031   0.00012  -0.04625
   D32       -0.00935  -0.00002  -0.00019   0.00006  -0.00018  -0.00953
   D33        3.13869   0.00001   0.00104   0.00071   0.00132   3.14002
   D34        3.13801   0.00000  -0.00052  -0.00048  -0.00071   3.13730
   D35        0.00717   0.00000  -0.00025  -0.00006  -0.00026   0.00690
   D36        0.02364  -0.00005  -0.00156  -0.00074  -0.00187   0.02177
   D37       -3.10721  -0.00005  -0.00129  -0.00032  -0.00142  -3.10863
   D38        0.00163   0.00002   0.00027   0.00000   0.00027   0.00190
   D39        3.13754  -0.00001  -0.00082  -0.00058  -0.00106   3.13648
   D40       -3.12917   0.00002   0.00054   0.00042   0.00072  -3.12845
   D41        0.00673  -0.00001  -0.00055  -0.00015  -0.00061   0.00612
   D42        3.11704  -0.00002  -0.00163  -0.00334  -0.00297   3.11407
   D43        1.05408  -0.00004  -0.00192  -0.00333  -0.00327   1.05081
   D44       -1.03659  -0.00005  -0.00215  -0.00321  -0.00344  -1.04004
   D45        0.93378  -0.00001  -0.00196  -0.00304  -0.00318   0.93059
   D46       -1.12917  -0.00003  -0.00226  -0.00303  -0.00348  -1.13266
   D47        3.06333  -0.00005  -0.00249  -0.00291  -0.00366   3.05968
   D48       -1.15420   0.00000  -0.00150  -0.00295  -0.00267  -1.15687
   D49        3.06603  -0.00002  -0.00180  -0.00294  -0.00297   3.06307
   D50        0.97536  -0.00003  -0.00202  -0.00283  -0.00314   0.97221
   D51        0.64150   0.00002  -0.00147   0.00055  -0.00127   0.64023
   D52       -1.43044   0.00000  -0.00178  -0.00007  -0.00182  -1.43226
   D53        2.74102   0.00001  -0.00138   0.00025  -0.00131   2.73971
   D54        2.79924   0.00002  -0.00135   0.00052  -0.00114   2.79810
   D55        0.72730  -0.00001  -0.00165  -0.00010  -0.00170   0.72561
   D56       -1.38443   0.00001  -0.00125   0.00022  -0.00118  -1.38561
   D57       -1.44784   0.00000  -0.00162   0.00044  -0.00144  -1.44927
   D58        2.76341  -0.00002  -0.00192  -0.00018  -0.00200   2.76142
   D59        0.65168  -0.00001  -0.00152   0.00014  -0.00148   0.65020
   D60        1.01409   0.00000   0.00338  -0.00120   0.00291   1.01700
   D61       -2.02763  -0.00002   0.00394  -0.00192   0.00320  -2.02443
   D62        3.13473   0.00000   0.00325  -0.00130   0.00272   3.13745
   D63        0.09301  -0.00003   0.00380  -0.00202   0.00301   0.09602
   D64       -1.09946   0.00010   0.00439  -0.00068   0.00411  -1.09535
   D65        2.14200   0.00007   0.00495  -0.00140   0.00440   2.14640
   D66        2.80987   0.00024   0.00123  -0.00099   0.00080   2.81067
   D67       -0.23326   0.00021   0.00176  -0.00163   0.00109  -0.23216
   D68       -1.34115   0.00008  -0.00270   0.00407  -0.00104  -1.34219
   D69        0.79307  -0.00001  -0.00412   0.00674  -0.00137   0.79171
   D70        1.75759   0.00010   0.00078   0.00319   0.00208   1.75967
   D71       -2.30443   0.00004  -0.00064   0.00033  -0.00050  -2.30493
   D72        2.01543   0.00006  -0.00082   0.00074  -0.00052   2.01490
   D73       -2.91709   0.00000  -0.00358  -0.00011  -0.00362  -2.92071
   D74       -0.93044   0.00000  -0.00368   0.00016  -0.00362  -0.93406
   D75        1.20716  -0.00001  -0.00293  -0.00021  -0.00300   1.20416
   D76        0.95619   0.00000  -0.00245  -0.00077  -0.00275   0.95344
   D77        2.94284   0.00001  -0.00255  -0.00051  -0.00275   2.94009
   D78       -1.20274  -0.00001  -0.00180  -0.00088  -0.00214  -1.20488
   D79       -0.98688   0.00000  -0.00259  -0.00039  -0.00275  -0.98963
   D80        0.99977   0.00001  -0.00270  -0.00012  -0.00275   0.99702
   D81        3.13737   0.00000  -0.00194  -0.00049  -0.00213   3.13524
   D82       -2.78646   0.00006   0.00210  -0.00051   0.00189  -2.78457
   D83        0.38430   0.00006   0.00337  -0.00076   0.00306   0.38736
   D84        1.34337   0.00006   0.00291  -0.00058   0.00267   1.34603
   D85       -1.76906   0.00006   0.00417  -0.00084   0.00384  -1.76522
   D86       -0.65923   0.00007   0.00318  -0.00073   0.00288  -0.65634
   D87        2.51153   0.00007   0.00445  -0.00099   0.00406   2.51559
   D88        0.02263   0.00001   0.00046   0.00027   0.00057   0.02320
   D89       -3.14146   0.00000  -0.00051   0.00046  -0.00033   3.14140
   D90       -3.12552   0.00001   0.00149  -0.00010   0.00145  -3.12407
   D91       -0.00642   0.00001   0.00051   0.00009   0.00055  -0.00587
   D92        0.03260  -0.00001  -0.00078   0.00038  -0.00063   0.03197
   D93        3.14088   0.00000   0.00065  -0.00076   0.00035   3.14123
   D94       -3.10248  -0.00001  -0.00180   0.00074  -0.00151  -3.10399
   D95        0.00580   0.00000  -0.00037  -0.00040  -0.00053   0.00527
   D96        3.12132  -0.00001  -0.00157   0.00046  -0.00141   3.11992
   D97       -0.02632  -0.00004  -0.00189  -0.00050  -0.00209  -0.02842
   D98        0.00485  -0.00001  -0.00048   0.00024  -0.00039   0.00446
   D99        3.14039  -0.00004  -0.00079  -0.00072  -0.00108   3.13932
   D100      -0.00265  -0.00001   0.00007   0.00053   0.00028  -0.00238
   D101      -3.05174  -0.00004  -0.00178  -0.00115  -0.00224  -3.05398
   D102       3.10580   0.00001   0.00149  -0.00060   0.00125   3.10705
   D103       0.05671  -0.00003  -0.00035  -0.00228  -0.00126   0.05545
   D104      -0.00151   0.00001   0.00027  -0.00048   0.00008  -0.00143
   D105      -3.13752   0.00004   0.00056   0.00041   0.00072  -3.13681
   D106       3.04259   0.00003   0.00200   0.00121   0.00250   3.04509
   D107      -0.09342   0.00005   0.00229   0.00209   0.00314  -0.09028
   D108       1.76371  -0.00001   0.00066   0.00092   0.00106   1.76477
   D109      -0.32791   0.00012   0.00257  -0.00139   0.00199  -0.32592
   D110      -1.27119  -0.00001  -0.00235   0.00303  -0.00116  -1.27235
   D111      -1.26443  -0.00003  -0.00146  -0.00108  -0.00187  -1.26630
   D112       2.92713   0.00010   0.00045  -0.00339  -0.00093   2.92620
   D113       1.98385  -0.00003  -0.00447   0.00103  -0.00408   1.97977
   D114       0.42516   0.00007   0.00040   0.00016   0.00046   0.42562
   D115       2.55586   0.00005   0.00107  -0.00040   0.00091   2.55677
   D116       3.08583   0.00000  -0.00340   0.00140  -0.00284   3.08298
   D117       1.07307  -0.00004  -0.00367   0.00120  -0.00319   1.06988
   D118      -1.03841   0.00005  -0.00258   0.00113  -0.00213  -1.04053
   D119       0.94081   0.00010  -0.00231   0.00129  -0.00180   0.93902
   D120      -1.07194   0.00006  -0.00258   0.00109  -0.00215  -1.07409
   D121       3.09977   0.00015  -0.00149   0.00102  -0.00108   3.09868
   D122      -1.09186  -0.00003  -0.00287   0.00098  -0.00248  -1.09434
   D123      -3.10462  -0.00007  -0.00314   0.00077  -0.00283  -3.10744
   D124       1.06709   0.00001  -0.00205   0.00071  -0.00176   1.06533
   D125      -1.25848  -0.00005   0.00310   0.00098   0.00349  -1.25498
   D126       1.78919  -0.00006   0.00434   0.00070   0.00462   1.79381
   D127       0.88926   0.00002   0.00440   0.00085   0.00474   0.89400
   D128      -2.34626   0.00001   0.00564   0.00057   0.00587  -2.34039
   D129       2.89552   0.00006   0.00433   0.00101   0.00473   2.90025
   D130      -0.33999   0.00005   0.00556   0.00073   0.00586  -0.33414
   D131      -0.11796   0.00000   0.00081   0.00036   0.00096  -0.11700
   D132       3.09664   0.00000  -0.00013   0.00051   0.00008   3.09672
   D133       3.05804   0.00000   0.00043   0.00084   0.00077   3.05881
   D134      -0.01055   0.00000  -0.00050   0.00100  -0.00010  -0.01065
   D135       0.03825   0.00000  -0.00026   0.00006  -0.00024   0.03802
   D136      -3.10950   0.00001  -0.00025   0.00074   0.00005  -3.10945
   D137      -3.13755   0.00000   0.00012  -0.00043  -0.00005  -3.13760
   D138      -0.00212   0.00002   0.00014   0.00025   0.00024  -0.00188
   D139      -3.04233   0.00001  -0.00038  -0.00159  -0.00102  -3.04334
   D140       0.07335  -0.00001  -0.00198   0.00026  -0.00188   0.07147
   D141       0.01924  -0.00001   0.00070  -0.00188  -0.00005   0.01919
   D142       3.13492  -0.00002  -0.00091  -0.00003  -0.00092   3.13401
   D143       0.01379  -0.00002   0.00029  -0.00139  -0.00026   0.01352
   D144      -3.13411  -0.00001   0.00030  -0.00069   0.00003  -3.13408
   D145      -0.02089   0.00002  -0.00063   0.00207   0.00020  -0.02069
   D146      -3.13873   0.00003   0.00085   0.00038   0.00100  -3.13773
   D147      -2.64094  -0.00004   0.00003   0.00038   0.00022  -2.64072
   D148      -0.09262   0.00000   0.00032  -0.00017   0.00018  -0.09244
         Item               Value     Threshold  Converged?
 Maximum Force            0.000467     0.000450     NO 
 RMS     Force            0.000076     0.000300     YES
 Maximum Displacement     0.039727     0.001800     NO 
 RMS     Displacement     0.004610     0.001200     NO 
 Predicted change in Energy=-1.063526D-05
 Lowest energy point so far.  Saving SCF results.
 GradGradGradGradGradGradGradGradGradGradGradGradGradGradGradGradGradGrad

