H2O MP2(Full)/cc-pVTZ (Freq)                                            
Freq      RB3LYP                                                      CC-pVDZ             
Number of atoms                            I                3
Info1-9                                    I   N=           9
          12          12        1002           0           0         100
           6          18        -502
Charge                                     I                0
Multiplicity                               I                1
Number of electrons                        I               10
Number of alpha electrons                  I                5
Number of beta electrons                   I                5
Number of basis functions                  I               24
Number of independent functions            I               24
Number of point charges in /Mol/           I                0
Number of translation vectors              I                0
Atomic numbers                             I   N=           3
           8           1           1
Nuclear charges                            R   N=           3
  8.00000000E+00  1.00000000E+00  1.00000000E+00
Current cartesian coordinates              R   N=           9
  4.93038066E-32  7.39557099E-32  2.28602782E-01  5.91645679E-31  1.42979014E+00
 -9.14411127E-01 -1.75098791E-16 -1.42979014E+00 -9.14411127E-01
Force Field                                I                0
Int Atom Types                             I   N=           3
           0           0           0
MM charges                                 R   N=           3
  0.00000000E+00  0.00000000E+00  0.00000000E+00
Integer atomic weights                     I   N=           3
          16           1           1
Real atomic weights                        R   N=           3
  1.59949146E+01  1.00782504E+00  1.00782504E+00
Atom fragment info                         I   N=           3
           0           0           0
Atom residue num                           I   N=           3
           0           0           0
Nuclear spins                              I   N=           3
           0           1           1
Nuclear ZEff                               R   N=           3
 -5.60000000E+00 -1.00000000E+00 -1.00000000E+00
Nuclear QMom                               R   N=           3
  0.00000000E+00  0.00000000E+00  0.00000000E+00
Nuclear GFac                               R   N=           3
  0.00000000E+00  2.79284600E+00  2.79284600E+00
MicOpt                                     I   N=           3
          -1          -1          -1
Number of contracted shells                I               12
Number of primitive shells                 I               30
Pure/Cartesian d shells                    I                0
Pure/Cartesian f shells                    I                0
Highest angular momentum                   I                2
Largest degree of contraction              I                7
Shell types                                I   N=          12
           0           0           0           1           1          -2
           0           0           1           0           0           1
Number of primitives per shell             I   N=          12
           7           7           1           3           1           1
           3           1           1           3           1           1
Shell to atom map                          I   N=          12
           1           1           1           1           1           1
           2           2           2           3           3           3
Primitive exponents                        R   N=          30
  1.17200000E+04  1.75900000E+03  4.00800000E+02  1.13700000E+02  3.70300000E+01
  1.32700000E+01  5.02500000E+00  1.17200000E+04  4.00800000E+02  1.13700000E+02
  3.70300000E+01  1.32700000E+01  5.02500000E+00  1.01300000E+00  3.02300000E-01
  1.77000000E+01  3.85400000E+00  1.04600000E+00  2.75300000E-01  1.18500000E+00
  1.30100000E+01  1.96200000E+00  4.44600000E-01  1.22000000E-01  7.27000000E-01
  1.30100000E+01  1.96200000E+00  4.44600000E-01  1.22000000E-01  7.27000000E-01
Contraction coefficients                   R   N=          30
  7.11864434E-04  5.48520199E-03  2.79099296E-02  1.05133208E-01  2.84002490E-01
  4.51673946E-01  2.73208126E-01  7.69030046E-06  3.13484579E-04 -2.96614853E-03
 -1.08753543E-02 -1.20753817E-01 -1.06275264E-01  1.09597548E+00  1.00000000E+00
  6.26791663E-02  3.33536566E-01  7.41239642E-01  1.00000000E+00  1.00000000E+00
  3.34987264E-02  2.34800801E-01  8.13682958E-01  1.00000000E+00  1.00000000E+00
  3.34987264E-02  2.34800801E-01  8.13682958E-01  1.00000000E+00  1.00000000E+00
Coordinates of each shell                  R   N=          36
  2.46519033E-32  7.39557099E-32  2.28602782E-01  2.46519033E-32  7.39557099E-32
  2.28602782E-01  2.46519033E-32  7.39557099E-32  2.28602782E-01  2.46519033E-32
  7.39557099E-32  2.28602782E-01  2.46519033E-32  7.39557099E-32  2.28602782E-01
  2.46519033E-32  7.39557099E-32  2.28602782E-01  5.91645679E-31  1.42979014E+00
 -9.14411127E-01  5.91645679E-31  1.42979014E+00 -9.14411127E-01  5.91645679E-31
  1.42979014E+00 -9.14411127E-01 -1.75098791E-16 -1.42979014E+00 -9.14411127E-01
 -1.75098791E-16 -1.42979014E+00 -9.14411127E-01 -1.75098791E-16 -1.42979014E+00
 -9.14411127E-01
Constraint Structure                       R   N=           9
  2.46519033E-32  7.39557099E-32  2.28602782E-01  5.91645679E-31  1.42979014E+00
 -9.14411127E-01 -1.75098791E-16 -1.42979014E+00 -9.14411127E-01
Num ILSW                                   I              100
ILSW                                       I   N=         100
           0           0           0           0           2           0
           0           0           0           0         402          -1
           0           0           0           0           2           0
           0           0           0           0           1           0
           1           0           0           0           0           0
           0           0      100000           0          -1           0
           0           0           0           0           0           0
           0           0           0           1           0           0
           0           0           1           0           0           0
           0           0           4          40           0           0
           0           0           5           0           0           0
           0           0           0           0           0           0
           0           0           0           0           0           0
           0           0           0           0           0           0
           0           0           0           0           0           0
           0           0           0           0           0           0
           0           0           0           0
Num RLSW                                   I               40
RLSW                                       R   N=          40
  8.00000000E-01  7.20000000E-01  1.00000000E+00  8.10000000E-01  2.00000000E-01
  0.00000000E+00  0.00000000E+00  1.00000000E+00  0.00000000E+00  0.00000000E+00
  0.00000000E+00  0.00000000E+00  1.00000000E+00  0.00000000E+00  0.00000000E+00
  0.00000000E+00  0.00000000E+00  1.00000000E+00  0.00000000E+00  0.00000000E+00
  0.00000000E+00  0.00000000E+00  1.00000000E+00  0.00000000E+00  0.00000000E+00
  0.00000000E+00  0.00000000E+00  1.00000000E+00  0.00000000E+00  0.00000000E+00
  0.00000000E+00  0.00000000E+00  1.00000000E+00  0.00000000E+00  0.00000000E+00
  0.00000000E+00  0.00000000E+00  0.00000000E+00  1.00000000E+00  1.00000000E+00
MxBond                                     I                2
NBond                                      I   N=           3
           2           1           1
IBond                                      I   N=           6
           2           3           1           0           1           0
RBond                                      R   N=           6
  1.00000000E-01  1.00000000E-01  1.00000000E-01  0.00000000E+00  1.00000000E-01
  0.00000000E+00
Virial Ratio                               R      2.005173516742127E+00
SCF Energy                                 R     -7.642062659361594E+01
Total Energy                               R     -7.642062659361594E+01
RMS Force                                  R      1.492758822653391E-05
RMS Density                                R      6.279576921439258E-10
External E-field                           R   N=          35
  0.00000000E+00  0.00000000E+00  0.00000000E+00  0.00000000E+00  0.00000000E+00
  0.00000000E+00  0.00000000E+00  0.00000000E+00  0.00000000E+00  0.00000000E+00
  0.00000000E+00  0.00000000E+00  0.00000000E+00  0.00000000E+00  0.00000000E+00
  0.00000000E+00  0.00000000E+00  0.00000000E+00  0.00000000E+00  0.00000000E+00
  0.00000000E+00  0.00000000E+00  0.00000000E+00  0.00000000E+00  0.00000000E+00
  0.00000000E+00  0.00000000E+00  0.00000000E+00  0.00000000E+00  0.00000000E+00
  0.00000000E+00  0.00000000E+00  0.00000000E+00  0.00000000E+00  0.00000000E+00
IOpCl                                      I                0
IROHF                                      I                0
Alpha Orbital Energies                     R   N=          24
 -1.91247252E+01 -9.91919419E-01 -5.06802980E-01 -3.67457675E-01 -2.87749098E-01
  4.92214522E-02  1.25173995E-01  5.49621806E-01  6.11634961E-01  9.03880718E-01
  9.18123684E-01  9.96163443E-01  1.19053504E+00  1.23640555E+00  1.41645518E+00
  1.59089205E+00  1.66984077E+00  2.08997192E+00  2.13159070E+00  2.92071475E+00
  2.94997638E+00  3.12429792E+00  3.44557739E+00  3.73531203E+00
Alpha MO coefficients                      R   N=         576
  9.96421452E-01  2.16983435E-02 -6.93816380E-03  0.00000000E+00  0.00000000E+00
 -1.96463545E-03  0.00000000E+00  0.00000000E+00  8.15530636E-04  1.28757793E-05
  0.00000000E+00  0.00000000E+00 -3.94710649E-04  0.00000000E+00 -3.71507127E-04
  9.84465891E-04  0.00000000E+00  8.95661950E-04 -8.42401642E-04 -3.71507127E-04
  9.84465891E-04  0.00000000E+00 -8.95661950E-04 -8.42401642E-04 -2.06210177E-01
  4.42314281E-01  3.53372381E-01  0.00000000E+00  0.00000000E+00 -1.15100379E-01
  0.00000000E+00  0.00000000E+00  7.17106601E-03  2.48977122E-03  0.00000000E+00
  0.00000000E+00 -4.39567510E-03  0.00000000E+00  2.02756457E-01  1.54186154E-02
  0.00000000E+00 -3.64852349E-02  1.93368917E-02  2.02756457E-01  1.54186154E-02
  0.00000000E+00  3.64852349E-02  1.93368917E-02  0.00000000E+00  0.00000000E+00
  0.00000000E+00  0.00000000E+00  5.03635395E-01  0.00000000E+00  0.00000000E+00
  2.02094961E-01  0.00000000E+00  0.00000000E+00  0.00000000E+00 -2.33695085E-02
  0.00000000E+00  0.00000000E+00  3.27703392E-01  1.13527772E-01  0.00000000E+00
 -1.50558336E-02  2.82597283E-02 -3.27703392E-01 -1.13527772E-01  0.00000000E+00
 -1.50558336E-02 -2.82597283E-02 -8.32278336E-02  1.67068662E-01  3.81916300E-01
  0.00000000E+00  0.00000000E+00  5.43587532E-01  0.00000000E+00  0.00000000E+00
  3.48289837E-01 -1.84504150E-02  0.00000000E+00  0.00000000E+00  1.89456526E-03
  0.00000000E+00 -2.04228724E-01 -5.01333662E-02  0.00000000E+00  2.50487302E-02
  1.44928049E-02 -2.04228724E-01 -5.01333662E-02  0.00000000E+00 -2.50487302E-02
  1.44928049E-02  0.00000000E+00  0.00000000E+00  0.00000000E+00  6.36804122E-01
  0.00000000E+00  0.00000000E+00  4.88802039E-01  0.00000000E+00  0.00000000E+00
  0.00000000E+00 -1.92975811E-02  0.00000000E+00  0.00000000E+00  0.00000000E+00
  0.00000000E+00  0.00000000E+00  3.26743903E-02  0.00000000E+00  0.00000000E+00
  0.00000000E+00  0.00000000E+00  3.26743903E-02  0.00000000E+00  0.00000000E+00
 -8.79435565E-02  1.26502607E-01  8.93050605E-01  0.00000000E+00  0.00000000E+00
 -2.50797828E-01  0.00000000E+00  0.00000000E+00 -3.18671260E-01  8.66240617E-03
  0.00000000E+00  0.00000000E+00 -4.10824321E-03  0.00000000E+00 -1.07731860E-01
 -7.64026323E-01  0.00000000E+00 -2.89918939E-03 -3.93287041E-03 -1.07731860E-01
 -7.64026323E-01  0.00000000E+00  2.89918939E-03 -3.93287041E-03  0.00000000E+00
  0.00000000E+00  0.00000000E+00  0.00000000E+00 -3.71321886E-01  0.00000000E+00
  0.00000000E+00 -6.12918889E-01  0.00000000E+00  0.00000000E+00  0.00000000E+00
  1.00935902E-02  0.00000000E+00  0.00000000E+00  1.05551415E-01  1.30418320E+00
  0.00000000E+00 -1.92002433E-03 -2.69836204E-03 -1.05551415E-01 -1.30418320E+00
  0.00000000E+00 -1.92002433E-03  2.69836204E-03  0.00000000E+00  0.00000000E+00
  0.00000000E+00  0.00000000E+00 -2.88549170E-01  0.00000000E+00  0.00000000E+00
 -3.23781616E-01  0.00000000E+00  0.00000000E+00  0.00000000E+00 -1.04643447E-01
  0.00000000E+00  0.00000000E+00  9.39938918E-01 -8.71096814E-01  0.00000000E+00
  5.86792249E-02 -1.30129262E-01 -9.39938918E-01  8.71096814E-01  0.00000000E+00
  5.86792249E-02  1.30129262E-01  4.22726327E-02 -2.48158081E-01  3.54430040E-01
  0.00000000E+00  0.00000000E+00  3.89593595E-01  0.00000000E+00  0.00000000E+00
 -6.52014331E-02  2.58954579E-03  0.00000000E+00  0.00000000E+00 -9.54034347E-02
  0.00000000E+00  8.02806082E-01 -6.15276072E-01  0.00000000E+00  2.49183831E-01
 -6.01964521E-02  8.02806082E-01 -6.15276072E-01  0.00000000E+00 -2.49183831E-01
 -6.01964521E-02  5.41674176E-02 -1.60121107E-01 -6.13432932E-01  0.00000000E+00
  0.00000000E+00 -7.44550298E-01  0.00000000E+00  0.00000000E+00  1.24515235E+00
 -1.47448070E-02  0.00000000E+00  0.00000000E+00 -1.97572884E-02  0.00000000E+00
  5.46333957E-01  7.58968025E-02  0.00000000E+00 -2.51799676E-02  2.38204802E-01
  5.46333957E-01  7.58968025E-02  0.00000000E+00  2.51799676E-02  2.38204802E-01
  0.00000000E+00  0.00000000E+00  0.00000000E+00 -9.64039407E-01  0.00000000E+00
  0.00000000E+00  1.00363087E+00  0.00000000E+00  0.00000000E+00  0.00000000E+00
  1.85413115E-03  0.00000000E+00  0.00000000E+00  0.00000000E+00  0.00000000E+00
  0.00000000E+00  3.72468979E-02  0.00000000E+00  0.00000000E+00  0.00000000E+00
  0.00000000E+00  3.72468979E-02  0.00000000E+00  0.00000000E+00  0.00000000E+00
  0.00000000E+00  0.00000000E+00  0.00000000E+00 -7.55195628E-01  0.00000000E+00
  0.00000000E+00  1.75460091E+00  0.00000000E+00  0.00000000E+00  0.00000000E+00
 -2.10222915E-02  0.00000000E+00  0.00000000E+00 -3.64076968E-01 -8.35924849E-01
  0.00000000E+00  2.55775595E-01 -1.37964956E-01  3.64076968E-01  8.35924849E-01
  0.00000000E+00  2.55775595E-01  1.37964956E-01  3.85333491E-02 -5.24333754E-01
  4.53572548E-01  0.00000000E+00  0.00000000E+00 -1.33006047E-01  0.00000000E+00
  0.00000000E+00  7.53983772E-01  1.26958851E-01  0.00000000E+00  0.00000000E+00
  1.72645605E-02  0.00000000E+00  3.44754794E-01 -2.02417249E-01  0.00000000E+00
 -3.61037933E-01 -5.13779434E-01  3.44754794E-01 -2.02417249E-01  0.00000000E+00
  3.61037933E-01 -5.13779434E-01  0.00000000E+00  0.00000000E+00  0.00000000E+00
  0.00000000E+00  0.00000000E+00  0.00000000E+00  0.00000000E+00  0.00000000E+00
  0.00000000E+00  0.00000000E+00  0.00000000E+00  0.00000000E+00  0.00000000E+00
  1.40742793E-01  0.00000000E+00  0.00000000E+00  6.83572192E-01  0.00000000E+00
  0.00000000E+00  0.00000000E+00  0.00000000E+00 -6.83572192E-01  0.00000000E+00
  0.00000000E+00  0.00000000E+00  0.00000000E+00  0.00000000E+00  2.00867822E-02
  0.00000000E+00  0.00000000E+00 -6.59569936E-01  0.00000000E+00  0.00000000E+00
  0.00000000E+00 -1.70743141E-01  0.00000000E+00  0.00000000E+00  0.00000000E+00
  0.00000000E+00  0.00000000E+00  7.57952443E-01  0.00000000E+00  0.00000000E+00
  0.00000000E+00  0.00000000E+00  7.57952443E-01  0.00000000E+00  0.00000000E+00
  5.66406157E-04 -1.62683772E+00  3.01020516E+00  0.00000000E+00  0.00000000E+00
 -6.27683316E-02  0.00000000E+00  0.00000000E+00 -9.95187160E-01 -1.18044316E-01
  0.00000000E+00  0.00000000E+00  1.12053033E-01  0.00000000E+00 -8.00471668E-01
 -3.99231401E-01  0.00000000E+00  3.46184520E-01  1.45820469E-02 -8.00471668E-01
 -3.99231401E-01  0.00000000E+00 -3.46184520E-01  1.45820469E-02  0.00000000E+00
  0.00000000E+00  0.00000000E+00  0.00000000E+00  1.58498537E-03  0.00000000E+00
  0.00000000E+00  8.94647864E-01  0.00000000E+00  0.00000000E+00  0.00000000E+00
  3.36780220E-02  0.00000000E+00  0.00000000E+00 -3.70704706E-01 -1.06737069E-01
  0.00000000E+00 -4.51436152E-01 -7.08288448E-01  3.70704706E-01  1.06737069E-01
  0.00000000E+00 -4.51436152E-01  7.08288448E-01  0.00000000E+00  0.00000000E+00
  0.00000000E+00  0.00000000E+00  7.62165226E-01  0.00000000E+00  0.00000000E+00
  1.76276860E-01  0.00000000E+00  0.00000000E+00  0.00000000E+00  1.34580063E-01
  0.00000000E+00  0.00000000E+00 -2.52841058E-01 -3.84059285E-01  0.00000000E+00
  7.44204978E-01 -5.39785327E-01  2.52841058E-01  3.84059285E-01  0.00000000E+00
  7.44204978E-01  5.39785327E-01 -5.57668667E-02  6.39150532E-01  9.03369331E-01
  0.00000000E+00  0.00000000E+00 -6.35892157E-01  0.00000000E+00  0.00000000E+00
 -2.25260710E-01 -4.70094056E-02  0.00000000E+00  0.00000000E+00  2.13627657E-01
  0.00000000E+00 -4.67956663E-01 -1.91331592E-01  0.00000000E+00  7.43743167E-01
 -5.64022144E-01 -4.67956663E-01 -1.91331592E-01  0.00000000E+00 -7.43743167E-01
 -5.64022144E-01  0.00000000E+00  0.00000000E+00  0.00000000E+00  1.98447069E-02
  0.00000000E+00  0.00000000E+00 -3.14817905E-01  0.00000000E+00  0.00000000E+00
  0.00000000E+00  1.04002843E+00  0.00000000E+00  0.00000000E+00  0.00000000E+00
  0.00000000E+00  0.00000000E+00  4.00244792E-01  0.00000000E+00  0.00000000E+00
  0.00000000E+00  0.00000000E+00  4.00244792E-01  0.00000000E+00  0.00000000E+00
  0.00000000E+00  0.00000000E+00  0.00000000E+00  0.00000000E+00  0.00000000E+00
  0.00000000E+00  0.00000000E+00  0.00000000E+00  0.00000000E+00  0.00000000E+00
  0.00000000E+00  0.00000000E+00  0.00000000E+00  1.05935521E+00  0.00000000E+00
  0.00000000E+00 -3.66812124E-01  0.00000000E+00  0.00000000E+00  0.00000000E+00
  0.00000000E+00  3.66812124E-01  0.00000000E+00  0.00000000E+00 -1.00106634E-02
 -1.49656334E-01  4.13668874E-01  0.00000000E+00  0.00000000E+00  1.86112052E-02
  0.00000000E+00  0.00000000E+00 -4.81647525E-01  1.06384808E+00  0.00000000E+00
  0.00000000E+00  2.67770996E-01  0.00000000E+00 -2.30311304E-01 -2.33529340E-02
  0.00000000E+00  3.14008269E-01  3.38418911E-01 -2.30311304E-01 -2.33529340E-02
  0.00000000E+00 -3.14008269E-01  3.38418911E-01 -6.41793233E-02 -2.49216192E-01
  2.30255419E+00  0.00000000E+00  0.00000000E+00 -3.75974101E-01  0.00000000E+00
  0.00000000E+00 -9.83609039E-01  2.38893339E-01  0.00000000E+00  0.00000000E+00
 -1.13140760E+00  0.00000000E+00 -1.21886697E+00 -2.05484046E-01  0.00000000E+00
  6.30910171E-01 -4.77900042E-01 -1.21886697E+00 -2.05484046E-01  0.00000000E+00
 -6.30910171E-01 -4.77900042E-01  0.00000000E+00  0.00000000E+00  0.00000000E+00
  0.00000000E+00 -4.30185936E-01  0.00000000E+00  0.00000000E+00 -1.14618447E+00
  0.00000000E+00  0.00000000E+00  0.00000000E+00  1.32478215E+00  0.00000000E+00
  0.00000000E+00  1.04781296E+00  3.07531114E-01  0.00000000E+00 -5.99692335E-01
  5.14557341E-01 -1.04781296E+00 -3.07531114E-01  0.00000000E+00 -5.99692335E-01
 -5.14557341E-01
Total SCF Density                          R   N=         300
  2.08461044E+00 -1.66987548E-01  4.48049358E-01 -2.23136766E-01  4.39914698E-01
  5.41560477E-01  0.00000000E+00  0.00000000E+00  0.00000000E+00  8.11038980E-01
  0.00000000E+00  0.00000000E+00  0.00000000E+00  3.38963670E-32  5.07297222E-01
 -4.69286960E-02  7.97265413E-02  3.33890550E-01  0.00000000E+00  0.00000000E+00
  6.17478725E-01  0.00000000E+00  0.00000000E+00  0.00000000E+00  6.22542307E-01
  2.15704154E-32  0.00000000E+00  4.77854867E-01  0.00000000E+00  0.00000000E+00
  0.00000000E+00  2.15704154E-32  2.03564351E-01  0.00000000E+00  1.38666956E-32
  8.16847462E-02 -5.93070863E-02  1.22755755E-01  2.71091929E-01  0.00000000E+00
  0.00000000E+00  3.76998037E-01  0.00000000E+00  0.00000000E+00  2.42715799E-01
  2.07000321E-03 -3.96189077E-03 -1.23335743E-02 -5.08618781E-34  0.00000000E+00
 -2.06320289E-02 -3.15949995E-34  0.00000000E+00 -1.28164544E-02  6.93233878E-04
  2.31138319E-35 -1.85640493E-34  5.32174177E-35 -2.45775583E-02  3.04392527E-33
 -1.81765077E-33 -1.88653939E-02  2.50185639E-33 -1.39520360E-33  3.63459100E-35
  7.44793269E-04 -3.08624285E-51 -6.17248570E-51  4.93798856E-50 -6.42143139E-33
 -2.35394233E-02 -1.97519542E-49 -2.77984043E-33 -9.44571980E-03  0.00000000E+00
  0.00000000E+00  1.68518870E-34  1.09226786E-03  7.10908440E-04 -3.27262391E-03
 -1.65401251E-03  7.57593114E-35  0.00000000E+00  3.07316277E-03  3.09634930E-35
  0.00000000E+00  1.25602850E-03 -9.18096455E-05  2.30791709E-35  0.00000000E+00
  4.61342671E-05 -4.10026463E-34  1.52891224E-33  1.40381942E-33  1.48021252E-64
  3.71113593E-50 -2.77984043E-34  6.44166560E-65  1.51677371E-50  6.94960107E-35
 -4.72355698E-36  0.00000000E+00  2.69264815E-35 -1.21937947E-35  1.38380637E-36
 -5.03662167E-02  1.11107592E-01 -1.26943382E-02  7.70371978E-33  3.30086054E-01
 -2.68705607E-01  3.08148791E-33  1.32454408E-01 -1.39354224E-01  8.54583425E-03
 -4.16976064E-33 -1.53165344E-02 -2.55605904E-03  1.11193617E-34  3.80418408E-01
  3.94791795E-03 -3.06895865E-03 -2.74101346E-02  3.08148791E-33  1.14353209E-01
 -5.80569909E-02  1.15555797E-33  4.58867813E-02 -3.46991423E-02  1.92676582E-03
 -1.38992021E-33 -5.30617647E-03 -3.26289474E-04 -1.18143218E-34  1.01135935E-01
  3.12812246E-02  2.88889492E-34 -6.74075481E-34 -1.68518870E-34  4.16143728E-02
  7.70371978E-34  7.70371978E-34  3.19426172E-02  5.77778983E-34  3.85185989E-34
 -2.91397213E-34 -1.26107339E-03  1.04244016E-34  9.99005154E-35 -6.22340814E-36
 -7.70371978E-34 -1.68518870E-34  2.13523156E-03  1.26626639E-02 -2.38672964E-02
 -6.66514043E-03  7.70371978E-34 -1.51653014E-02  3.56277643E-02  5.77778983E-34
 -6.08541619E-03  1.69266211E-02 -1.10597564E-03  1.94588830E-34  7.03694861E-04
  4.14960330E-04 -1.11193617E-34 -3.48949353E-02 -7.05340493E-03  1.80555932E-34
  4.37218317E-03 -1.20661114E-02  2.19119963E-02  2.47480132E-02  7.70371978E-34
  2.84651989E-02  1.13081590E-02  2.88889492E-34  1.14222974E-02  1.03713515E-02
 -4.38529349E-04 -1.25092819E-34 -1.32083192E-03 -1.14417248E-04  6.42838099E-35
  2.04439088E-02  5.55801936E-03 -4.21297175E-35 -1.53742590E-03  2.76655732E-03
 -5.03662167E-02  1.11107592E-01 -1.26943382E-02 -7.70371978E-33 -3.30086054E-01
 -2.68705607E-01 -3.08148791E-33 -1.32454408E-01 -1.39354224E-01  8.54583425E-03
  3.55819575E-33  1.53165344E-02 -2.55605904E-03  9.17347342E-34 -4.91396441E-02
 -4.76778089E-02 -2.88889492E-34 -1.51595444E-02 -1.65993265E-02  3.80418408E-01
  3.94791795E-03 -3.06895865E-03 -2.74101346E-02 -3.08148791E-33 -1.14353209E-01
 -5.80569909E-02 -1.15555797E-33 -4.58867813E-02 -3.46991423E-02  1.92676582E-03
  1.27872660E-33  5.30617647E-03 -3.26289474E-04  1.45941623E-34 -4.76778089E-02
 -2.02729955E-02 -5.26621469E-36 -2.16383957E-04 -7.27503662E-03  1.01135935E-01
  3.12812246E-02 -2.88889492E-34  6.74075481E-34  1.68518870E-34  4.16143728E-02
  7.70371978E-34 -7.70371978E-34  3.19426172E-02  5.77778983E-34 -3.85185989E-34
  2.72589303E-34 -1.26107339E-03  1.80689628E-34 -1.11627967E-34  6.22340814E-36
  2.88889492E-34  5.26621469E-36  2.13523156E-03 -4.81482486E-35 -3.76158192E-36
  7.70371978E-34  1.68518870E-34  2.13523156E-03 -1.26626639E-02  2.38672964E-02
  6.66514043E-03  7.70371978E-34 -1.51653014E-02 -3.56277643E-02  5.77778983E-34
 -6.08541619E-03 -1.69266211E-02  1.10597564E-03  1.94588830E-34  7.03694861E-04
 -4.14960330E-04  1.11193617E-34  1.51595444E-02  2.16383957E-04 -4.81482486E-35
 -3.46547067E-03 -1.64469167E-04  3.48949353E-02  7.05340493E-03  1.80555932E-34
  4.37218317E-03 -1.20661114E-02  2.19119963E-02  2.47480132E-02 -7.70371978E-34
 -2.84651989E-02  1.13081590E-02 -2.88889492E-34 -1.14222974E-02  1.03713515E-02
 -4.38529349E-04 -5.55968086E-35  1.32083192E-03 -1.14417248E-04  6.42838099E-35
 -1.65993265E-02 -7.27503662E-03  3.76158192E-36  1.64469167E-04 -4.27891660E-04
  2.04439088E-02  5.55801936E-03  4.21297175E-35  1.53742590E-03  2.76655732E-03
QEq coupling tensors                       R   N=          18
  1.96707078E+00  1.81293284E-16 -1.65882830E+00  1.26934966E-16  0.00000000E+00
 -3.08242474E-01  2.61917483E-01  4.35157457E-18 -2.15316574E-01  1.60962382E-18
  3.16805570E-01 -4.66009091E-02  2.61917483E-01 -1.08856146E-16 -2.15316574E-01
 -8.61043132E-17 -3.16805570E-01 -4.66009091E-02
Mulliken Charges                           R   N=           3
 -2.62635821E-01  1.31317910E-01  1.31317910E-01
Optimization MaxStp                        I                2
Optimization Job offset                    I                0
Optimization Num results per geometry      I                2
Optimization Num geometry variables        I                9
Opt point       1 Results for each geome   R   N=           2
 -7.64206266E+01  0.00000000E+00
Opt point       1 Geometries               R   N=           9
  2.46519033E-32  7.39557099E-32  2.28602782E-01  5.91645679E-31  1.42979014E+00
 -9.14411127E-01 -1.75098791E-16 -1.42979014E+00 -9.14411127E-01
Opt point       1 Gradient at each geome   R   N=           9
  6.88818664E-16 -2.75617745E-16  3.42375254E-05  1.74863979E-17 -1.11171893E-05
 -1.71187627E-05 -7.06305061E-16  1.11171893E-05 -1.71187627E-05
Optimization Number of geometries          I   N=           1
           1
ONIOM Charges                              I   N=          16
           0           0           0           0           0           0
           0           0           0           0           0           0
           0           0           0           0
ONIOM Multiplicities                       I   N=          16
           1           0           0           0           0           0
           0           0           0           0           0           0
           0           0           0           0
Atom Layers                                I   N=           3
           1           1           1
Atom Modifiers                             I   N=           3
           0           0           0
Force Field                                I                0
Int Atom Modified Types                    I   N=           3
           0           0           0
Link Atoms                                 I   N=           3
           0           0           0
Atom Modified MM Charges                   R   N=           3
  0.00000000E+00  0.00000000E+00  0.00000000E+00
Link Distances                             R   N=          12
  0.00000000E+00  0.00000000E+00  0.00000000E+00  0.00000000E+00  0.00000000E+00
  0.00000000E+00  0.00000000E+00  0.00000000E+00  0.00000000E+00  0.00000000E+00
  0.00000000E+00  0.00000000E+00
Cartesian Gradient                         R   N=           9
  6.88818664E-16 -2.75617745E-16  3.42375254E-05  1.74863979E-17 -1.11171893E-05
 -1.71187627E-05 -7.06305061E-16  1.11171893E-05 -1.71187627E-05
Cartesian Force Constants                  R   N=          45
 -7.44792925E-05 -5.00249658E-12  6.41534700E-01  2.07879007E-11  1.45358204E-10
  4.52173553E-01  3.72396451E-05  8.90636069E-13 -1.07137225E-11 -5.47065557E-05
  1.07787335E-11 -3.20767350E-01  1.93653222E-01 -2.75996889E-12  3.53987028E-01
 -1.20375076E-11  2.56449531E-01 -2.26086777E-01  6.13021902E-12 -2.25051376E-01
  2.15550509E-01  3.72396454E-05 -1.26237616E-12 -1.35231689E-11  1.74669098E-05
 -6.29708919E-12  6.92761471E-12 -5.47065557E-05  1.27100774E-11 -3.20767350E-01
 -1.93653222E-01 -6.29707176E-12 -3.32196784E-02 -3.13981544E-02 -2.76044439E-12
  3.53987028E-01  1.54868377E-11 -2.56449531E-01 -2.26086777E-01 -6.92759665E-12
  3.13981544E-02  1.05362677E-02 -6.13057648E-12  2.25051376E-01  2.15550509E-01
Dipole Moment                              R   N=           3
 -2.51321579E-17  1.04950770E-16 -7.62525094E-01
Dipole Derivatives                         R   N=          27
 -6.67110860E-01  2.98162357E-11  2.32792321E-11  1.85292905E-12 -3.94543646E-01
 -8.35216838E-13 -1.56383758E-10 -1.45985401E-09 -3.01757274E-01  3.33555430E-01
 -1.68964590E-11 -2.93445688E-11 -8.89706294E-11  1.97271822E-01  6.84878672E-02
  9.20259083E-11  1.08936631E-01  1.50878637E-01  3.33555430E-01 -1.68250682E-11
  2.59126859E-11 -8.54287543E-11  1.97271822E-01 -6.84878672E-02 -8.98363353E-11
 -1.08936631E-01  1.50878637E-01
Polarizability                             R   N=           6
  3.20282668E+00  1.73404433E-12  7.40566339E+00 -6.22465543E-12  6.33118002E-11
  5.59116113E+00
Polarizability Derivatives                 R   N=          54
  1.82327201E-11  6.30086738E-11  4.87992262E-10  2.08983167E+00  2.50771437E-10
  1.95684198E-10  1.46782748E-10  2.15796843E-11  3.90231765E-10 -3.08773222E-12
  4.52044851E+00  1.98012111E-10 -7.00444064E-02 -8.32268754E-11  5.16807266E+00
 -9.89214631E-10 -1.24554447E-08  5.72616291E+00 -3.18377763E-11  1.46965312E+00
 -4.31687510E-10 -1.04491584E+00  5.86823650E-11 -2.17903847E-10 -1.08486012E-01
 -5.71106626E-11  4.74220465E+00 -4.89090918E-10 -2.26022426E+00  1.14622287E+00
  3.50222032E-02  1.08730853E-10 -2.58403633E+00  5.61677869E-10  2.44131559E+00
 -2.86308145E+00 -6.42669686E-12 -1.46965312E+00  4.17607719E-10 -1.04491584E+00
  3.02656980E-11  1.86884660E-10  1.08486012E-01  4.74706622E-11 -4.74220465E+00
 -4.68776158E-10 -2.26022426E+00 -1.14622287E+00  3.50222032E-02  9.91286944E-11
 -2.58403633E+00 -5.66443041E-10 -2.44131559E+00 -2.86308145E+00
HyperPolarizability                        R   N=          10
  3.74056461E-10 -5.57888123E-10  3.77872251E-10 -2.82724574E-09 -3.56396652E+00
 -3.46167899E-10 -1.97201193E+01 -1.98847559E-10 -3.20173404E-10 -1.40813697E+01
