 Entering Gaussian System, Link 0=/home/mdsoft/gaussian/g09/g09
 Initial command:
 /home/mdsoft/gaussian/g09/l1.exe /scr/yagi/h2o-freq.4891/Gau-4939.inp -scrdir=/scr/yagi/h2o-freq.4891/
 Entering Link 1 = /home/mdsoft/gaussian/g09/l1.exe PID=      4940.
  
 Copyright (c) 1988,1990,1992,1993,1995,1998,2003,2009,2011,
            Gaussian, Inc.  All Rights Reserved.
  
 This is part of the Gaussian(R) 09 program.  It is based on
 the Gaussian(R) 03 system (copyright 2003, Gaussian, Inc.),
 the Gaussian(R) 98 system (copyright 1998, Gaussian, Inc.),
 the Gaussian(R) 94 system (copyright 1995, Gaussian, Inc.),
 the Gaussian 92(TM) system (copyright 1992, Gaussian, Inc.),
 the Gaussian 90(TM) system (copyright 1990, Gaussian, Inc.),
 the Gaussian 88(TM) system (copyright 1988, Gaussian, Inc.),
 the Gaussian 86(TM) system (copyright 1986, Carnegie Mellon
 University), and the Gaussian 82(TM) system (copyright 1983,
 Carnegie Mellon University). Gaussian is a federally registered
 trademark of Gaussian, Inc.
  
 This software contains proprietary and confidential information,
 including trade secrets, belonging to Gaussian, Inc.
  
 This software is provided under written license and may be
 used, copied, transmitted, or stored only in accord with that
 written license.
  
 The following legend is applicable only to US Government
 contracts under FAR:
  
                    RESTRICTED RIGHTS LEGEND
  
 Use, reproduction and disclosure by the US Government is
 subject to restrictions as set forth in subparagraphs (a)
 and (c) of the Commercial Computer Software - Restricted
 Rights clause in FAR 52.227-19.
  
 Gaussian, Inc.
 340 Quinnipiac St., Bldg. 40, Wallingford CT 06492
  
  
 ---------------------------------------------------------------
 Warning -- This program may not be used in any manner that
 competes with the business of Gaussian, Inc. or will provide
 assistance to any competitor of Gaussian, Inc.  The licensee
 of this program is prohibited from giving any competitor of
 Gaussian, Inc. access to this program.  By using this program,
 the user acknowledges that Gaussian, Inc. is engaged in the
 business of creating and licensing software in the field of
 computational chemistry and represents and warrants to the
 licensee that it is not a competitor of Gaussian, Inc. and that
 it will not use this program in any manner prohibited above.
 ---------------------------------------------------------------
  

 Cite this work as:
 Gaussian 09, Revision C.01,
 M. J. Frisch, G. W. Trucks, H. B. Schlegel, G. E. Scuseria, 
 M. A. Robb, J. R. Cheeseman, G. Scalmani, V. Barone, B. Mennucci, 
 G. A. Petersson, H. Nakatsuji, M. Caricato, X. Li, H. P. Hratchian, 
 A. F. Izmaylov, J. Bloino, G. Zheng, J. L. Sonnenberg, M. Hada, 
 M. Ehara, K. Toyota, R. Fukuda, J. Hasegawa, M. Ishida, T. Nakajima, 
 Y. Honda, O. Kitao, H. Nakai, T. Vreven, J. A. Montgomery, Jr., 
 J. E. Peralta, F. Ogliaro, M. Bearpark, J. J. Heyd, E. Brothers, 
 K. N. Kudin, V. N. Staroverov, T. Keith, R. Kobayashi, J. Normand, 
 K. Raghavachari, A. Rendell, J. C. Burant, S. S. Iyengar, J. Tomasi, 
 M. Cossi, N. Rega, J. M. Millam, M. Klene, J. E. Knox, J. B. Cross, 
 V. Bakken, C. Adamo, J. Jaramillo, R. Gomperts, R. E. Stratmann, 
 O. Yazyev, A. J. Austin, R. Cammi, C. Pomelli, J. W. Ochterski, 
 R. L. Martin, K. Morokuma, V. G. Zakrzewski, G. A. Voth, 
 P. Salvador, J. J. Dannenberg, S. Dapprich, A. D. Daniels, 
 O. Farkas, J. B. Foresman, J. V. Ortiz, J. Cioslowski, 
 and D. J. Fox, Gaussian, Inc., Wallingford CT, 2010.
 
 ******************************************
 Gaussian 09:  EM64L-G09RevC.01 23-Sep-2011
                22-Mar-2014 
 ******************************************
 %NprocShared=8
 Will use up to    8 processors via shared memory.
 %chk=h2o-freq.chk
 %mem=1000MB
 -------------------------------
 #p B3LYP/cc-pVDZ opt freq=raman
 -------------------------------
 1/14=-1,18=20,19=15,26=3,38=1/1,3;
 2/9=110,12=2,17=6,18=5,40=1/2;
 3/5=16,11=2,16=1,25=1,30=1,71=1,74=-5/1,2,3;
 4//1;
 5/5=2,38=5/2;
 6/7=2,8=2,9=2,10=2,28=1/1;
 7//1,2,3,16;
 1/14=-1,18=20,19=15/3(2);
 2/9=110/2;
 99//99;
 2/9=110/2;
 3/5=16,11=2,16=1,25=1,30=1,71=1,74=-5/1,2,3;
 4/5=5,16=3/1;
 5/5=2,38=5/2;
 7//1,2,3,16;
 1/14=-1,18=20,19=15/3(-5);
 2/9=110/2;
 6/7=2,8=2,9=2,10=2,19=2,28=1/1;
 99/9=1/99;
 Leave Link    1 at Sat Mar 22 13:20:00 2014, MaxMem=  131072000 cpu:       1.4
 (Enter /home/mdsoft/gaussian/g09/l101.exe)
 ----------------------------
 H2O MP2(Full)/cc-pVTZ (Freq)
 ----------------------------
 Charge =  0 Multiplicity = 1
 Symbolic Z-Matrix:
 O                     0.        0.        0.6803 
 H                    -0.93586   0.       -0.61098 
 H                     0.93586   0.       -0.61098 
 
 NAtoms=      3 NQM=        0 NQMF=       0 NMMI=      3 NMMIF=      0
                NMic=       0 NMicF=      0.
                    Isotopes and Nuclear Properties:
 (Nuclear quadrupole moments (NQMom) in fm**2, nuclear magnetic moments (NMagM)
  in nuclear magnetons)

  Atom         1           2           3
 IAtWgt=          16           1           1
 AtmWgt=  15.9949146   1.0078250   1.0078250
 NucSpn=           0           1           1
 AtZEff=   0.0000000   0.0000000   0.0000000
 NQMom=    0.0000000   0.0000000   0.0000000
 NMagM=    0.0000000   2.7928460   2.7928460
 Leave Link  101 at Sat Mar 22 13:20:00 2014, MaxMem=  131072000 cpu:       0.6
 (Enter /home/mdsoft/gaussian/g09/l103.exe)

 GradGradGradGradGradGradGradGradGradGradGradGradGradGradGradGradGradGrad
 Berny optimization.
 Initialization pass.
                           ----------------------------
                           !    Initial Parameters    !
                           ! (Angstroms and Degrees)  !
 --------------------------                            --------------------------
 ! Name  Definition              Value          Derivative Info.                !
 --------------------------------------------------------------------------------
 ! R1    R(1,2)                  1.5948         estimate D2E/DX2                !
 ! R2    R(1,3)                  1.5948         estimate D2E/DX2                !
 ! A1    A(2,1,3)               71.8655         estimate D2E/DX2                !
 --------------------------------------------------------------------------------
 Trust Radius=3.00D-01 FncErr=1.00D-07 GrdErr=1.00D-06
 Number of steps in this run=     20 maximum allowed number of steps=    100.
 GradGradGradGradGradGradGradGradGradGradGradGradGradGradGradGradGradGrad

 Leave Link  103 at Sat Mar 22 13:20:01 2014, MaxMem=  131072000 cpu:       0.0
 (Enter /home/mdsoft/gaussian/g09/l202.exe)
                          Input orientation:                          
 ---------------------------------------------------------------------
 Center     Atomic      Atomic             Coordinates (Angstroms)
 Number     Number       Type             X           Y           Z
 ---------------------------------------------------------------------
      1          8           0        0.000000    0.000000    0.680303
      2          1           0       -0.935861    0.000000   -0.610982
      3          1           0        0.935861    0.000000   -0.610982
 ---------------------------------------------------------------------
                    Distance matrix (angstroms):
                    1          2          3
     1  O    0.000000
     2  H    1.594758   0.000000
     3  H    1.594758   1.871721   0.000000
 Stoichiometry    H2O
 Framework group  C2V[C2(O),SGV(H2)]
 Deg. of freedom     2
 Full point group                 C2V     NOp   4
 Largest Abelian subgroup         C2V     NOp   4
 Largest concise Abelian subgroup C2      NOp   2
                         Standard orientation:                         
 ---------------------------------------------------------------------
 Center     Atomic      Atomic             Coordinates (Angstroms)
 Number     Number       Type             X           Y           Z
 ---------------------------------------------------------------------
      1          8           0        0.000000    0.000000    0.258257
      2          1           0        0.000000    0.935861   -1.033028
      3          1           0        0.000000   -0.935861   -1.033028
 ---------------------------------------------------------------------
 Rotational constants (GHZ):    286.2726024    169.3180536    106.3918217
 Leave Link  202 at Sat Mar 22 13:20:01 2014, MaxMem=  131072000 cpu:       0.0
 (Enter /home/mdsoft/gaussian/g09/l301.exe)
 Standard basis: CC-pVDZ (5D, 7F)
 Ernie: Thresh=  0.10000D-02 Tol=  0.10000D-05 Strict=F.
 Ernie:  2 primitive shells out of 32 were deleted.
 There are    11 symmetry adapted basis functions of A1  symmetry.
 There are     2 symmetry adapted basis functions of A2  symmetry.
 There are     4 symmetry adapted basis functions of B1  symmetry.
 There are     7 symmetry adapted basis functions of B2  symmetry.
 Integral buffers will be    131072 words long.
 Raffenetti 2 integral format.
 Two-electron integral symmetry is turned on.
    24 basis functions,    47 primitive gaussians,    25 cartesian basis functions
     5 alpha electrons        5 beta electrons
       nuclear repulsion energy         5.5918898057 Hartrees.
 IExCor=  402 DFT=T Ex+Corr=B3LYP ExCW=0 ScaHFX=  0.200000
 ScaDFX=  0.800000  0.720000  1.000000  0.810000 ScalE2=  1.000000  1.000000
 IRadAn=      0 IRanWt=     -1 IRanGd=            0 ICorTp=0
 NAtoms=    3 NActive=    3 NUniq=    2 SFac= 2.25D+00 NAtFMM=   60 NAOKFM=F Big=F
 Leave Link  301 at Sat Mar 22 13:20:01 2014, MaxMem=  131072000 cpu:       0.3
 (Enter /home/mdsoft/gaussian/g09/l302.exe)
 NPDir=0 NMtPBC=     1 NCelOv=     1 NCel=       1 NClECP=     1 NCelD=      1
         NCelK=      1 NCelE2=     1 NClLst=     1 CellRange=     0.0.
 One-electron integrals computed using PRISM.
 One-electron integral symmetry used in STVInt
 NBasis=    24 RedAO= T  NBF=    11     2     4     7
 NBsUse=    24 1.00D-06 NBFU=    11     2     4     7
 Precomputing XC quadrature grid using
 IXCGrd= 2 IRadAn=           0 IRanWt=          -1 IRanGd=           0 AccXCQ= 0.00D+00.
 NRdTot=     186 NPtTot=       23360 NUsed=       24714 NTot=       24746
 NSgBfM=    25    25    25    25    25 NAtAll=     3     3.
 Leave Link  302 at Sat Mar 22 13:20:02 2014, MaxMem=  131072000 cpu:       1.0
 (Enter /home/mdsoft/gaussian/g09/l303.exe)
 DipDrv:  MaxL=1.
 Leave Link  303 at Sat Mar 22 13:20:02 2014, MaxMem=  131072000 cpu:       0.2
 (Enter /home/mdsoft/gaussian/g09/l401.exe)
 Harris functional with IExCor=  402 diagonalized for initial guess.
 ExpMin= 1.22D-01 ExpMax= 1.17D+04 ExpMxC= 4.01D+02 IAcc=1 IRadAn=         1 AccDes= 0.00D+00
 HarFok:  IExCor=  402 AccDes= 0.00D+00 IRadAn=         1 IDoV= 1
 ScaDFX=  1.000000  1.000000  1.000000  1.000000
 FoFCou: FMM=F IPFlag=           0 FMFlag=      100000 FMFlg1=           0
         NFxFlg=           0 DoJE=T BraDBF=F KetDBF=T FulRan=T
         Omega=  0.000000  0.000000  1.000000  0.000000  0.000000 ICntrl=     500 IOpCl=  0
         NMat0=    1 NMatS0=    1 NMatT0=    0 NMatD0=    1 NMtDS0=    0 NMtDT0=    0
         I1Cent=           4 NGrid=           0.
 Petite list used in FoFCou.

MKL ERROR: Parameter 10 was incorrect on entry to DSYEVD
 DSYEVD returned Info=         -10 IAlg= 4 N=     2 NDim=    24 NE2=     5461268 trying DSYEV.
 Harris En= -76.2410691637598    
 Initial guess orbital symmetries:
       Occupied  (A1) (A1) (A1) (B2) (B1)
       Virtual   (A1) (B2) (A1) (B2) (B1) (B2) (A1) (A1) (A1) (A2)
                 (B1) (B2) (B2) (A1) (A2) (A1) (B1) (A1) (B2)
 The electronic state of the initial guess is 1-A1.
 Leave Link  401 at Sat Mar 22 13:20:02 2014, MaxMem=  131072000 cpu:       1.1
 (Enter /home/mdsoft/gaussian/g09/l502.exe)
 Closed shell SCF:
 Requested convergence on RMS density matrix=1.00D-08 within 128 cycles.
 Requested convergence on MAX density matrix=1.00D-06.
 Requested convergence on             energy=1.00D-06.
 No special actions if energy rises.
 Using DIIS extrapolation, IDIIS=  1040.
 Integral symmetry usage will be decided dynamically.
        24674 words used for storage of precomputed grid.
 Keep R1 ints in memory in canonical form, NReq=956458.
 IEnd=       45147 IEndB=       45147 NGot=   131072000 MDV=   130991141
 LenX=   130991141 LenY=   130990075
 Symmetry not used in FoFDir.
 MinBra= 0 MaxBra= 2 Meth= 1.
 IRaf=       0 NMat=   1 IRICut=       1 DoRegI=T DoRafI=F ISym2E= 0 JSym2E=0.
 Integral accuracy reduced to 1.0D-05 until final iterations.

 Cycle   1  Pass 0  IDiag  1:
 E= -76.0634803438843    
 DIIS: error= 8.99D-02 at cycle   1 NSaved=   1.
 NSaved= 1 IEnMin= 1 EnMin= -76.0634803438843     IErMin= 1 ErrMin= 8.99D-02
 ErrMax= 8.99D-02 EMaxC= 1.00D-01 BMatC= 1.16D-01 BMatP= 1.16D-01
 IDIUse=3 WtCom= 1.01D-01 WtEn= 8.99D-01
 Coeff-Com:  0.100D+01
 Coeff-En:   0.100D+01
 Coeff:      0.100D+01
 Gap=     0.009 Goal=   None    Shift=    0.000

MKL ERROR: Parameter 10 was incorrect on entry to DSYEVD
 DSYEVD returned Info=         -10 IAlg= 4 N=     2 NDim=    24 NE2=     5457918 trying DSYEV.
 GapD=    0.009 DampG=0.250 DampE=0.500 DampFc=0.2500 IDamp=-1.
 Damping current iteration by 2.50D-01
 RMSDP=3.86D-02 MaxDP=3.04D-01              OVMax= 5.46D-01

 Cycle   2  Pass 0  IDiag  1:
 E= -76.1087812734120     Delta-E=       -0.045300929528 Rises=F Damp=T
 DIIS: error= 8.68D-03 at cycle   2 NSaved=   2.
 NSaved= 2 IEnMin= 2 EnMin= -76.1087812734120     IErMin= 2 ErrMin= 8.68D-03
 ErrMax= 8.68D-03 EMaxC= 1.00D-01 BMatC= 2.51D-03 BMatP= 1.16D-01
 IDIUse=3 WtCom= 9.13D-01 WtEn= 8.68D-02
 Coeff-Com:  0.181D-01 0.982D+00
 Coeff-En:   0.266D+00 0.734D+00
 Coeff:      0.397D-01 0.960D+00
 Gap=     0.125 Goal=   None    Shift=    0.000

MKL ERROR: Parameter 10 was incorrect on entry to DSYEVD
 DSYEVD returned Info=         -10 IAlg= 4 N=     2 NDim=    24 NE2=     5457918 trying DSYEV.
 RMSDP=6.15D-03 MaxDP=4.31D-02 DE=-4.53D-02 OVMax= 4.66D-01

 Cycle   3  Pass 0  IDiag  1:
 E= -76.1919888539766     Delta-E=       -0.083207580565 Rises=F Damp=F
 DIIS: error= 1.99D-02 at cycle   3 NSaved=   3.
 NSaved= 3 IEnMin= 3 EnMin= -76.1919888539766     IErMin= 2 ErrMin= 8.68D-03
 ErrMax= 1.99D-02 EMaxC= 1.00D-01 BMatC= 5.55D-03 BMatP= 2.51D-03
 IDIUse=2 WtCom= 0.00D+00 WtEn= 1.00D+00
 Coeff-En:   0.564D-01 0.000D+00 0.944D+00
 Coeff:      0.564D-01 0.000D+00 0.944D+00
 Gap=     0.193 Goal=   None    Shift=    0.000

MKL ERROR: Parameter 10 was incorrect on entry to DSYEVD
 DSYEVD returned Info=         -10 IAlg= 4 N=     2 NDim=    24 NE2=     5457918 trying DSYEV.
 RMSDP=6.41D-03 MaxDP=5.88D-02 DE=-8.32D-02 OVMax= 1.05D-01

 Cycle   4  Pass 0  IDiag  1:
 E= -76.1677151258047     Delta-E=        0.024273728172 Rises=F Damp=F
 DIIS: error= 4.66D-02 at cycle   4 NSaved=   4.
 NSaved= 4 IEnMin= 3 EnMin= -76.1919888539766     IErMin= 2 ErrMin= 8.68D-03
 ErrMax= 4.66D-02 EMaxC= 1.00D-01 BMatC= 3.15D-02 BMatP= 2.51D-03
 IDIUse=2 WtCom= 0.00D+00 WtEn= 1.00D+00
 Coeff-En:   0.000D+00 0.000D+00 0.760D+00 0.240D+00
 Coeff:      0.000D+00 0.000D+00 0.760D+00 0.240D+00
 Gap=     0.179 Goal=   None    Shift=    0.000

MKL ERROR: Parameter 10 was incorrect on entry to DSYEVD
 DSYEVD returned Info=         -10 IAlg= 4 N=     2 NDim=    24 NE2=     5457918 trying DSYEV.
 RMSDP=3.16D-03 MaxDP=2.91D-02 DE= 2.43D-02 OVMax= 5.03D-02

 Cycle   5  Pass 0  IDiag  1:
 E= -76.1947274057794     Delta-E=       -0.027012279975 Rises=F Damp=F
 DIIS: error= 1.36D-02 at cycle   5 NSaved=   5.
 NSaved= 5 IEnMin= 5 EnMin= -76.1947274057794     IErMin= 2 ErrMin= 8.68D-03
 ErrMax= 1.36D-02 EMaxC= 1.00D-01 BMatC= 2.66D-03 BMatP= 2.51D-03
 IDIUse=3 WtCom= 8.64D-01 WtEn= 1.36D-01
 Coeff-Com: -0.136D-02-0.231D-01 0.262D+00-0.156D+00 0.919D+00
 Coeff-En:   0.000D+00 0.000D+00 0.384D+00 0.000D+00 0.616D+00
 Coeff:     -0.117D-02-0.199D-01 0.278D+00-0.135D+00 0.877D+00
 Gap=     0.173 Goal=   None    Shift=    0.000

MKL ERROR: Parameter 10 was incorrect on entry to DSYEVD
 DSYEVD returned Info=         -10 IAlg= 4 N=     2 NDim=    24 NE2=     5457918 trying DSYEV.
 RMSDP=1.38D-03 MaxDP=1.20D-02 DE=-2.70D-02 OVMax= 2.24D-02

 Cycle   6  Pass 0  IDiag  1:
 E= -76.1972774394311     Delta-E=       -0.002550033652 Rises=F Damp=F
 DIIS: error= 5.40D-04 at cycle   6 NSaved=   6.
 NSaved= 6 IEnMin= 6 EnMin= -76.1972774394311     IErMin= 6 ErrMin= 5.40D-04
 ErrMax= 5.40D-04 EMaxC= 1.00D-01 BMatC= 3.35D-06 BMatP= 2.51D-03
 IDIUse=3 WtCom= 9.95D-01 WtEn= 5.40D-03
 Coeff-Com: -0.312D-02 0.474D-02-0.209D-01 0.193D-02 0.194D-01 0.998D+00
 Coeff-En:   0.000D+00 0.000D+00 0.000D+00 0.000D+00 0.000D+00 0.100D+01
 Coeff:     -0.310D-02 0.472D-02-0.208D-01 0.192D-02 0.193D-01 0.998D+00
 Gap=     0.173 Goal=   None    Shift=    0.000

MKL ERROR: Parameter 10 was incorrect on entry to DSYEVD
 DSYEVD returned Info=         -10 IAlg= 4 N=     2 NDim=    24 NE2=     5457918 trying DSYEV.
 RMSDP=6.87D-05 MaxDP=6.90D-04 DE=-2.55D-03 OVMax= 1.37D-03

 Cycle   7  Pass 0  IDiag  1:
 E= -76.1972808679005     Delta-E=       -0.000003428469 Rises=F Damp=F
 DIIS: error= 1.05D-04 at cycle   7 NSaved=   7.
 NSaved= 7 IEnMin= 7 EnMin= -76.1972808679005     IErMin= 7 ErrMin= 1.05D-04
 ErrMax= 1.05D-04 EMaxC= 1.00D-01 BMatC= 1.79D-07 BMatP= 3.35D-06
 IDIUse=3 WtCom= 9.99D-01 WtEn= 1.05D-03
 Coeff-Com:  0.234D-03-0.203D-03-0.290D-02 0.142D-02-0.189D-01 0.102D-02
 Coeff-Com:  0.102D+01
 Coeff-En:   0.000D+00 0.000D+00 0.000D+00 0.000D+00 0.000D+00 0.749D-01
 Coeff-En:   0.925D+00
 Coeff:      0.233D-03-0.203D-03-0.289D-02 0.142D-02-0.189D-01 0.110D-02
 Coeff:      0.102D+01
 Gap=     0.173 Goal=   None    Shift=    0.000

MKL ERROR: Parameter 10 was incorrect on entry to DSYEVD
 DSYEVD returned Info=         -10 IAlg= 4 N=     2 NDim=    24 NE2=     5457918 trying DSYEV.
 RMSDP=1.36D-05 MaxDP=1.53D-04 DE=-3.43D-06 OVMax= 3.00D-04

 Cycle   8  Pass 0  IDiag  1:
 E= -76.1972810578364     Delta-E=       -0.000000189936 Rises=F Damp=F
 DIIS: error= 1.78D-05 at cycle   8 NSaved=   8.
 NSaved= 8 IEnMin= 8 EnMin= -76.1972810578364     IErMin= 8 ErrMin= 1.78D-05
 ErrMax= 1.78D-05 EMaxC= 1.00D-01 BMatC= 3.18D-09 BMatP= 1.79D-07
 IDIUse=1 WtCom= 1.00D+00 WtEn= 0.00D+00
 Coeff-Com: -0.122D-03 0.170D-03-0.437D-03 0.888D-03-0.406D-02-0.468D-01
 Coeff-Com:  0.724D-01 0.978D+00
 Coeff:     -0.122D-03 0.170D-03-0.437D-03 0.888D-03-0.406D-02-0.468D-01
 Coeff:      0.724D-01 0.978D+00
 Gap=     0.173 Goal=   None    Shift=    0.000

MKL ERROR: Parameter 10 was incorrect on entry to DSYEVD
 DSYEVD returned Info=         -10 IAlg= 4 N=     2 NDim=    24 NE2=     5457918 trying DSYEV.
 RMSDP=2.31D-06 MaxDP=2.53D-05 DE=-1.90D-07 OVMax= 4.99D-05

 Initial convergence to 1.0D-05 achieved.  Increase integral accuracy.
 Cycle   9  Pass 1  IDiag  1:
 E= -76.1972856178699     Delta-E=       -0.000004560034 Rises=F Damp=F
 DIIS: error= 4.88D-06 at cycle   1 NSaved=   1.
 NSaved= 1 IEnMin= 1 EnMin= -76.1972856178699     IErMin= 1 ErrMin= 4.88D-06
 ErrMax= 4.88D-06 EMaxC= 1.00D-01 BMatC= 5.39D-10 BMatP= 5.39D-10
 IDIUse=1 WtCom= 1.00D+00 WtEn= 0.00D+00
 Coeff-Com:  0.100D+01
 Coeff:      0.100D+01
 Gap=     0.173 Goal=   None    Shift=    0.000

MKL ERROR: Parameter 10 was incorrect on entry to DSYEVD
 DSYEVD returned Info=         -10 IAlg= 4 N=     2 NDim=    24 NE2=     5457918 trying DSYEV.
 RMSDP=2.31D-06 MaxDP=2.53D-05 DE=-4.56D-06 OVMax= 2.51D-05

 Cycle  10  Pass 1  IDiag  1:
 E= -76.1972856171874     Delta-E=        0.000000000683 Rises=F Damp=F
 DIIS: error= 9.54D-06 at cycle   2 NSaved=   2.
 NSaved= 2 IEnMin= 1 EnMin= -76.1972856178699     IErMin= 1 ErrMin= 4.88D-06
 ErrMax= 9.54D-06 EMaxC= 1.00D-01 BMatC= 1.44D-09 BMatP= 5.39D-10
 IDIUse=1 WtCom= 1.00D+00 WtEn= 0.00D+00
 Coeff-Com:  0.650D+00 0.350D+00
 Coeff:      0.650D+00 0.350D+00
 Gap=     0.173 Goal=   None    Shift=    0.000

MKL ERROR: Parameter 10 was incorrect on entry to DSYEVD
 DSYEVD returned Info=         -10 IAlg= 4 N=     2 NDim=    24 NE2=     5457918 trying DSYEV.
 RMSDP=1.50D-06 MaxDP=1.35D-05 DE= 6.83D-10 OVMax= 2.38D-05

 Cycle  11  Pass 1  IDiag  1:
 E= -76.1972856179728     Delta-E=       -0.000000000785 Rises=F Damp=F
 DIIS: error= 6.28D-06 at cycle   3 NSaved=   3.
 NSaved= 3 IEnMin= 3 EnMin= -76.1972856179728     IErMin= 1 ErrMin= 4.88D-06
 ErrMax= 6.28D-06 EMaxC= 1.00D-01 BMatC= 4.92D-10 BMatP= 5.39D-10
 IDIUse=1 WtCom= 1.00D+00 WtEn= 0.00D+00
 Coeff-Com:  0.134D-01 0.367D+00 0.620D+00
 Coeff:      0.134D-01 0.367D+00 0.620D+00
 Gap=     0.173 Goal=   None    Shift=    0.000

MKL ERROR: Parameter 10 was incorrect on entry to DSYEVD
 DSYEVD returned Info=         -10 IAlg= 4 N=     2 NDim=    24 NE2=     5457918 trying DSYEV.
 RMSDP=6.91D-07 MaxDP=6.66D-06 DE=-7.85D-10 OVMax= 1.26D-05

 Cycle  12  Pass 1  IDiag  1:
 E= -76.1972856184608     Delta-E=       -0.000000000488 Rises=F Damp=F
 DIIS: error= 7.46D-07 at cycle   4 NSaved=   4.
 NSaved= 4 IEnMin= 4 EnMin= -76.1972856184608     IErMin= 4 ErrMin= 7.46D-07
 ErrMax= 7.46D-07 EMaxC= 1.00D-01 BMatC= 8.65D-12 BMatP= 4.92D-10
 IDIUse=1 WtCom= 1.00D+00 WtEn= 0.00D+00
 Coeff-Com: -0.784D-02 0.597D-03 0.122D+00 0.885D+00
 Coeff:     -0.784D-02 0.597D-03 0.122D+00 0.885D+00
 Gap=     0.173 Goal=   None    Shift=    0.000

MKL ERROR: Parameter 10 was incorrect on entry to DSYEVD
 DSYEVD returned Info=         -10 IAlg= 4 N=     2 NDim=    24 NE2=     5457918 trying DSYEV.
 RMSDP=8.37D-08 MaxDP=9.08D-07 DE=-4.88D-10 OVMax= 1.80D-06

 Cycle  13  Pass 1  IDiag  1:
 E= -76.1972856184702     Delta-E=       -0.000000000009 Rises=F Damp=F
 DIIS: error= 4.22D-08 at cycle   5 NSaved=   5.
 NSaved= 5 IEnMin= 5 EnMin= -76.1972856184702     IErMin= 5 ErrMin= 4.22D-08
 ErrMax= 4.22D-08 EMaxC= 1.00D-01 BMatC= 1.11D-14 BMatP= 8.65D-12
 IDIUse=1 WtCom= 1.00D+00 WtEn= 0.00D+00
 Coeff-Com:  0.111D-02-0.783D-02-0.364D-01-0.141D+00 0.118D+01
 Coeff:      0.111D-02-0.783D-02-0.364D-01-0.141D+00 0.118D+01
 Gap=     0.173 Goal=   None    Shift=    0.000

MKL ERROR: Parameter 10 was incorrect on entry to DSYEVD
 DSYEVD returned Info=         -10 IAlg= 4 N=     2 NDim=    24 NE2=     5457918 trying DSYEV.
 RMSDP=1.23D-08 MaxDP=1.16D-07 DE=-9.36D-12 OVMax= 2.23D-07

 Cycle  14  Pass 1  IDiag  1:
 E= -76.1972856184702     Delta-E=        0.000000000000 Rises=F Damp=F
 DIIS: error= 5.99D-09 at cycle   6 NSaved=   6.
 NSaved= 6 IEnMin= 6 EnMin= -76.1972856184702     IErMin= 6 ErrMin= 5.99D-09
 ErrMax= 5.99D-09 EMaxC= 1.00D-01 BMatC= 5.22D-16 BMatP= 1.11D-14
 IDIUse=1 WtCom= 1.00D+00 WtEn= 0.00D+00
 Coeff-Com:  0.344D-03-0.103D-02-0.943D-02-0.459D-01 0.243D+00 0.813D+00
 Coeff:      0.344D-03-0.103D-02-0.943D-02-0.459D-01 0.243D+00 0.813D+00
 Gap=     0.173 Goal=   None    Shift=    0.000

MKL ERROR: Parameter 10 was incorrect on entry to DSYEVD
 DSYEVD returned Info=         -10 IAlg= 4 N=     2 NDim=    24 NE2=     5457918 trying DSYEV.
 RMSDP=1.20D-09 MaxDP=1.20D-08 DE=-5.68D-14 OVMax= 2.57D-08

 SCF Done:  E(RB3LYP) =  -76.1972856185     A.U. after   14 cycles
             Convg  =    0.1203D-08             -V/T =  2.0128
 KE= 7.523682413261D+01 PE=-1.913441035317D+02 EE= 3.431810397492D+01
 Leave Link  502 at Sat Mar 22 13:20:03 2014, MaxMem=  131072000 cpu:       1.0
 (Enter /home/mdsoft/gaussian/g09/l601.exe)
 Copying SCF densities to generalized density rwf, IOpCl= 0 IROHF=0.

 **********************************************************************

            Population analysis using the SCF density.

 **********************************************************************

 Orbital symmetries:
       Occupied  (A1) (A1) (A1) (B2) (B1)
       Virtual   (A1) (B2) (B2) (A1) (B1) (B2) (A1) (A1) (A1) (A2)
                 (B1) (B2) (B2) (A1) (A1) (A2) (B1) (A1) (B2)
 The electronic state is 1-A1.
 Alpha  occ. eigenvalues --  -19.20772  -0.89062  -0.38134  -0.34561  -0.28793
 Alpha virt. eigenvalues --   -0.11495  -0.08549   0.43390   0.43793   0.86757
 Alpha virt. eigenvalues --    0.96218   0.97059   1.09057   1.15705   1.25524
 Alpha virt. eigenvalues --    1.30388   1.38417   1.51534   1.87243   2.61129
 Alpha virt. eigenvalues --    2.62009   2.62039   2.85210   2.86905
          Condensed to atoms (all electrons):
              1          2          3
     1  O    7.989260   0.171581   0.171581
     2  H    0.171581   0.672058  -0.009850
     3  H    0.171581  -0.009850   0.672058
 Mulliken atomic charges:
              1
     1  O   -0.332422
     2  H    0.166211
     3  H    0.166211
 Sum of Mulliken atomic charges =   0.00000
 Mulliken charges with hydrogens summed into heavy atoms:
              1
     1  O    0.000000
 Sum of Mulliken charges with hydrogens summed into heavy atoms =   0.00000
 Electronic spatial extent (au):  <R**2>=             29.3129
 Charge=              0.0000 electrons
 Dipole moment (field-independent basis, Debye):
    X=              0.0000    Y=              0.0000    Z=             -2.2557  Tot=              2.2557
 Quadrupole moment (field-independent basis, Debye-Ang):
   XX=             -8.0617   YY=             -5.6162   ZZ=             -4.5211
   XY=              0.0000   XZ=              0.0000   YZ=              0.0000
 Traceless Quadrupole moment (field-independent basis, Debye-Ang):
   XX=             -1.9954   YY=              0.4501   ZZ=              1.5452
   XY=              0.0000   XZ=              0.0000   YZ=              0.0000
 Octapole moment (field-independent basis, Debye-Ang**2):
  XXX=              0.0000  YYY=              0.0000  ZZZ=             -0.8207  XYY=              0.0000
  XXY=              0.0000  XXZ=              0.5495  XZZ=              0.0000  YZZ=              0.0000
  YYZ=             -1.6631  XYZ=              0.0000
 Hexadecapole moment (field-independent basis, Debye-Ang**3):
 XXXX=             -6.4926 YYYY=            -14.1427 ZZZZ=            -15.3239 XXXY=              0.0000
 XXXZ=              0.0000 YYYX=              0.0000 YYYZ=              0.0000 ZZZX=              0.0000
 ZZZY=              0.0000 XXYY=             -3.8215 XXZZ=             -4.3265 YYZZ=             -2.9934
 XXYZ=              0.0000 YYXZ=              0.0000 ZZXY=              0.0000
 N-N= 5.591889805714D+00 E-N=-1.913441033559D+02  KE= 7.523682413261D+01
 Symmetry A1   KE= 6.707349474815D+01
 Symmetry A2   KE= 1.759817917865D-35
 Symmetry B1   KE= 4.855058342895D+00
 Symmetry B2   KE= 3.308271041561D+00
 No NMR shielding tensors so no spin-rotation constants.
 Leave Link  601 at Sat Mar 22 13:20:03 2014, MaxMem=  131072000 cpu:       1.0
 (Enter /home/mdsoft/gaussian/g09/l701.exe)
 Compute integral first derivatives.
 ... and contract with generalized density number  0.
 Leave Link  701 at Sat Mar 22 13:20:04 2014, MaxMem=  131072000 cpu:       1.0
 (Enter /home/mdsoft/gaussian/g09/l702.exe)
 L702 exits ... SP integral derivatives will be done elsewhere.
 Leave Link  702 at Sat Mar 22 13:20:04 2014, MaxMem=  131072000 cpu:       0.1
 (Enter /home/mdsoft/gaussian/g09/l703.exe)
 Compute integral first derivatives, UseDBF=F ICtDFT=           0.
 Integral derivatives from FoFDir, PRISM(SPDF).
 Calling FoFJK, ICntrl=      2127 FMM=F ISym2X=1 I1Cent= 0 IOpClX= 0 NMat=1 NMatS=1 NMatT=0.
 FoFCou: FMM=F IPFlag=           0 FMFlag=      100000 FMFlg1=         800
         NFxFlg=           0 DoJE=F BraDBF=F KetDBF=F FulRan=T
         Omega=  0.000000  0.000000  1.000000  0.000000  0.000000 ICntrl=    2127 IOpCl=  0
         NMat0=    1 NMatS0=    1 NMatT0=    0 NMatD0=    1 NMtDS0=    0 NMtDT0=    0
         I1Cent=           0 NGrid=           0.
 Petite list used in FoFCou.
 Leave Link  703 at Sat Mar 22 13:20:04 2014, MaxMem=  131072000 cpu:       1.0
 (Enter /home/mdsoft/gaussian/g09/l716.exe)
 Dipole        =-3.98910689D-17 0.00000000D+00-8.87463112D-01
 ***** Axes restored to original set *****
 -------------------------------------------------------------------
 Center     Atomic                   Forces (Hartrees/Bohr)
 Number     Number              X              Y              Z
 -------------------------------------------------------------------
      1        8           0.000000000    0.000000000   -0.165418189
      2        1           0.051649468    0.000000000    0.082709094
      3        1          -0.051649468    0.000000000    0.082709094
 -------------------------------------------------------------------
 Cartesian Forces:  Max     0.165418189 RMS     0.071786799
 Leave Link  716 at Sat Mar 22 13:20:05 2014, MaxMem=  131072000 cpu:       0.1
 (Enter /home/mdsoft/gaussian/g09/l103.exe)

 GradGradGradGradGradGradGradGradGradGradGradGradGradGradGradGradGradGrad
 Berny optimization.
 Internal  Forces:  Max     0.097279805 RMS     0.080283532
 Search for a local minimum.
 Step number   1 out of a maximum of   20
 All quantities printed in internal units (Hartrees-Bohrs-Radians)
 RMS Force = .80284D-01 SwitMx=.10000D-02 MixMth= 1
 Mixed Optimization -- RFO/linear search
 Second derivative matrix not updated -- first step.
 The second derivative matrix:
                          R1        R2        A1
           R1           0.09196
           R2           0.00000   0.09196
           A1           0.00000   0.00000   0.16000
 ITU=  0
     Eigenvalues ---    0.09196   0.09196   0.16000
 RFO step:  Lambda=-1.00114003D-01 EMin= 9.19588951D-02
 Linear search not attempted -- first point.
 Maximum step size (   0.300) exceeded in Quadratic search.
    -- Step size scaled by   0.416
 Iteration  1 RMS(Cart)=  0.11005131 RMS(Int)=  0.00933344
 Iteration  2 RMS(Cart)=  0.00836162 RMS(Int)=  0.00000557
 Iteration  3 RMS(Cart)=  0.00000876 RMS(Int)=  0.00000000
 Iteration  4 RMS(Cart)=  0.00000000 RMS(Int)=  0.00000000
 ClnCor:  largest displacement from symmetrization is 1.29D-15 for atom     3.
 Variable       Old X    -DE/DX   Delta X   Delta X   Delta X     New X
                                 (Linear)    (Quad)   (Total)
    R1        3.01366  -0.09728   0.00000  -0.21089  -0.21089   2.80276
    R2        3.01366  -0.09728   0.00000  -0.21089  -0.21089   2.80276
    A1        1.25429   0.02024   0.00000   0.03240   0.03240   1.28669
         Item               Value     Threshold  Converged?
 Maximum Force            0.097280     0.000450     NO 
 RMS     Force            0.080284     0.000300     NO 
 Maximum Displacement     0.131800     0.001800     NO 
 RMS     Displacement     0.117288     0.001200     NO 
 Predicted change in Energy=-3.751279D-02
 GradGradGradGradGradGradGradGradGradGradGradGradGradGradGradGradGradGrad

 Leave Link  103 at Sat Mar 22 13:20:05 2014, MaxMem=  131072000 cpu:       0.0
 (Enter /home/mdsoft/gaussian/g09/l202.exe)
                          Input orientation:                          
 ---------------------------------------------------------------------
 Center     Atomic      Atomic             Coordinates (Angstroms)
 Number     Number       Type             X           Y           Z
 ---------------------------------------------------------------------
      1          8           0        0.000000    0.000000    0.610557
      2          1           0       -0.889709    0.000000   -0.576109
      3          1           0        0.889709    0.000000   -0.576109
 ---------------------------------------------------------------------
                    Distance matrix (angstroms):
                    1          2          3
     1  O    0.000000
     2  H    1.483159   0.000000
     3  H    1.483159   1.779419   0.000000
 Stoichiometry    H2O
 Framework group  C2V[C2(O),SGV(H2)]
 Deg. of freedom     2
 Full point group                 C2V     NOp   4
 RotChk:  IX=0 Diff= 8.87D-16
 Largest Abelian subgroup         C2V     NOp   4
 Largest concise Abelian subgroup C2      NOp   2
                         Standard orientation:                         
 ---------------------------------------------------------------------
 Center     Atomic      Atomic             Coordinates (Angstroms)
 Number     Number       Type             X           Y           Z
 ---------------------------------------------------------------------
      1          8           0        0.000000    0.000000    0.237333
      2          1           0        0.000000    0.889709   -0.949333
      3          1           0        0.000000   -0.889709   -0.949333
 ---------------------------------------------------------------------
 Rotational constants (GHZ):    316.7420284    200.4888556    122.7754350
 Leave Link  202 at Sat Mar 22 13:20:05 2014, MaxMem=  131072000 cpu:       0.0
 (Enter /home/mdsoft/gaussian/g09/l301.exe)
 Standard basis: CC-pVDZ (5D, 7F)
 Ernie: Thresh=  0.10000D-02 Tol=  0.10000D-05 Strict=F.
 Ernie:  2 primitive shells out of 32 were deleted.
 There are    11 symmetry adapted basis functions of A1  symmetry.
 There are     2 symmetry adapted basis functions of A2  symmetry.
 There are     4 symmetry adapted basis functions of B1  symmetry.
 There are     7 symmetry adapted basis functions of B2  symmetry.
 Integral buffers will be    131072 words long.
 Raffenetti 2 integral format.
 Two-electron integral symmetry is turned on.
    24 basis functions,    47 primitive gaussians,    25 cartesian basis functions
     5 alpha electrons        5 beta electrons
       nuclear repulsion energy         6.0060385970 Hartrees.
 IExCor=  402 DFT=T Ex+Corr=B3LYP ExCW=0 ScaHFX=  0.200000
 ScaDFX=  0.800000  0.720000  1.000000  0.810000 ScalE2=  1.000000  1.000000
 IRadAn=      0 IRanWt=     -1 IRanGd=            0 ICorTp=0
 NAtoms=    3 NActive=    3 NUniq=    2 SFac= 2.25D+00 NAtFMM=   60 NAOKFM=F Big=F
 Leave Link  301 at Sat Mar 22 13:20:05 2014, MaxMem=  131072000 cpu:       0.3
 (Enter /home/mdsoft/gaussian/g09/l302.exe)
 NPDir=0 NMtPBC=     1 NCelOv=     1 NCel=       1 NClECP=     1 NCelD=      1
         NCelK=      1 NCelE2=     1 NClLst=     1 CellRange=     0.0.
 One-electron integrals computed using PRISM.
 One-electron integral symmetry used in STVInt
 NBasis=    24 RedAO= T  NBF=    11     2     4     7
 NBsUse=    24 1.00D-06 NBFU=    11     2     4     7
 Precomputing XC quadrature grid using
 IXCGrd= 2 IRadAn=           0 IRanWt=          -1 IRanGd=           0 AccXCQ= 0.00D+00.
 NRdTot=     186 NPtTot=       23360 NUsed=       24714 NTot=       24746
 NSgBfM=    25    25    25    25    25 NAtAll=     3     3.
 Leave Link  302 at Sat Mar 22 13:20:05 2014, MaxMem=  131072000 cpu:       1.0
 (Enter /home/mdsoft/gaussian/g09/l303.exe)
 DipDrv:  MaxL=1.
 Leave Link  303 at Sat Mar 22 13:20:05 2014, MaxMem=  131072000 cpu:       0.2
 (Enter /home/mdsoft/gaussian/g09/l401.exe)
 Initial guess read from the read-write file.
 B after Tr=     0.000000    0.000000    0.000000
         Rot=    1.000000    0.000000    0.000000    0.000000 Ang=   0.00 deg.
 Guess basis will be translated and rotated to current coordinates.
 Initial guess orbital symmetries:
       Occupied  (A1) (A1) (A1) (B2) (B1)
       Virtual   (A1) (B2) (B2) (A1) (B1) (B2) (A1) (A1) (A1) (A2)
                 (B1) (B2) (B2) (A1) (A1) (A2) (B1) (A1) (B2)
 The electronic state of the initial guess is 1-A1.
 Generating alternative initial guess.
 Harris functional with IExCor=  402 diagonalized for initial guess.
 ExpMin= 1.22D-01 ExpMax= 1.17D+04 ExpMxC= 4.01D+02 IAcc=1 IRadAn=         1 AccDes= 0.00D+00
 HarFok:  IExCor=  402 AccDes= 0.00D+00 IRadAn=         1 IDoV= 1
 ScaDFX=  1.000000  1.000000  1.000000  1.000000
 FoFCou: FMM=F IPFlag=           0 FMFlag=      100000 FMFlg1=           0
         NFxFlg=           0 DoJE=T BraDBF=F KetDBF=T FulRan=T
         Omega=  0.000000  0.000000  1.000000  0.000000  0.000000 ICntrl=     500 IOpCl=  0
         NMat0=    1 NMatS0=    1 NMatT0=    0 NMatD0=    1 NMtDS0=    0 NMtDT0=    0
         I1Cent=           4 NGrid=           0.
 Petite list used in FoFCou.

MKL ERROR: Parameter 10 was incorrect on entry to DSYEVD
 DSYEVD returned Info=         -10 IAlg= 4 N=     2 NDim=    24 NE2=     5461268 trying DSYEV.
 Harris En= -76.2786374420885    
 Leave Link  401 at Sat Mar 22 13:20:05 2014, MaxMem=  131072000 cpu:       1.4
 (Enter /home/mdsoft/gaussian/g09/l502.exe)
 Closed shell SCF:
 Requested convergence on RMS density matrix=1.00D-08 within 128 cycles.
 Requested convergence on MAX density matrix=1.00D-06.
 Requested convergence on             energy=1.00D-06.
 No special actions if energy rises.
 Using DIIS extrapolation, IDIIS=  1040.
 Integral symmetry usage will be decided dynamically.
        24674 words used for storage of precomputed grid.
 Keep R1 ints in memory in canonical form, NReq=956458.
 IEnd=       45147 IEndB=       45147 NGot=   131072000 MDV=   130991141
 LenX=   130991141 LenY=   130990075
 Symmetry not used in FoFDir.
 MinBra= 0 MaxBra= 2 Meth= 1.
 IRaf=       0 NMat=   1 IRICut=       1 DoRegI=T DoRafI=F ISym2E= 0 JSym2E=0.
 Integral accuracy reduced to 1.0D-05 until final iterations.

 Cycle   1  Pass 0  IDiag  1:
 E= -76.2388852425834    
 DIIS: error= 7.01D-03 at cycle   1 NSaved=   1.
 NSaved= 1 IEnMin= 1 EnMin= -76.2388852425834     IErMin= 1 ErrMin= 7.01D-03
 ErrMax= 7.01D-03 EMaxC= 1.00D-01 BMatC= 1.04D-03 BMatP= 1.04D-03
 IDIUse=3 WtCom= 9.30D-01 WtEn= 7.01D-02
 Coeff-Com:  0.100D+01
 Coeff-En:   0.100D+01
 Coeff:      0.100D+01
 Gap=     0.214 Goal=   None    Shift=    0.000

MKL ERROR: Parameter 10 was incorrect on entry to DSYEVD
 DSYEVD returned Info=         -10 IAlg= 4 N=     2 NDim=    24 NE2=     5457918 trying DSYEV.
 GapD=    0.214 DampG=1.000 DampE=1.000 DampFc=1.0000 IDamp=-1.
 RMSDP=2.30D-03 MaxDP=2.30D-02              OVMax= 4.34D-02

 Cycle   2  Pass 0  IDiag  1:
 E= -76.2386950842878     Delta-E=        0.000190158296 Rises=F Damp=F
 DIIS: error= 1.23D-02 at cycle   2 NSaved=   2.
 NSaved= 2 IEnMin= 1 EnMin= -76.2388852425834     IErMin= 1 ErrMin= 7.01D-03
 ErrMax= 1.23D-02 EMaxC= 1.00D-01 BMatC= 2.11D-03 BMatP= 1.04D-03
 IDIUse=2 WtCom= 0.00D+00 WtEn= 1.00D+00
 Coeff-En:   0.540D+00 0.460D+00
 Coeff:      0.540D+00 0.460D+00
 Gap=     0.191 Goal=   None    Shift=    0.000

MKL ERROR: Parameter 10 was incorrect on entry to DSYEVD
 DSYEVD returned Info=         -10 IAlg= 4 N=     2 NDim=    24 NE2=     5457918 trying DSYEV.
 RMSDP=2.16D-03 MaxDP=2.01D-02 DE= 1.90D-04 OVMax= 3.41D-02

 Cycle   3  Pass 0  IDiag  1:
 E= -76.2391159661769     Delta-E=       -0.000420881889 Rises=F Damp=F
 DIIS: error= 1.02D-02 at cycle   3 NSaved=   3.
 NSaved= 3 IEnMin= 3 EnMin= -76.2391159661769     IErMin= 1 ErrMin= 7.01D-03
 ErrMax= 1.02D-02 EMaxC= 1.00D-01 BMatC= 1.57D-03 BMatP= 1.04D-03
 IDIUse=2 WtCom= 0.00D+00 WtEn= 1.00D+00
 Coeff-En:   0.000D+00 0.457D+00 0.543D+00
 Coeff:      0.000D+00 0.457D+00 0.543D+00
 Gap=     0.197 Goal=   None    Shift=    0.000

MKL ERROR: Parameter 10 was incorrect on entry to DSYEVD
 DSYEVD returned Info=         -10 IAlg= 4 N=     2 NDim=    24 NE2=     5457918 trying DSYEV.
 RMSDP=1.11D-03 MaxDP=1.03D-02 DE=-4.21D-04 OVMax= 1.86D-02

 Cycle   4  Pass 0  IDiag  1:
 E= -76.2405579620076     Delta-E=       -0.001441995831 Rises=F Damp=F
 DIIS: error= 8.76D-04 at cycle   4 NSaved=   4.
 NSaved= 4 IEnMin= 4 EnMin= -76.2405579620076     IErMin= 4 ErrMin= 8.76D-04
 ErrMax= 8.76D-04 EMaxC= 1.00D-01 BMatC= 1.25D-05 BMatP= 1.04D-03
 IDIUse=3 WtCom= 9.91D-01 WtEn= 8.76D-03
 Coeff-Com: -0.154D-01 0.111D+00 0.190D+00 0.715D+00
 Coeff-En:   0.000D+00 0.000D+00 0.000D+00 0.100D+01
 Coeff:     -0.153D-01 0.110D+00 0.188D+00 0.718D+00
 Gap=     0.196 Goal=   None    Shift=    0.000

MKL ERROR: Parameter 10 was incorrect on entry to DSYEVD
 DSYEVD returned Info=         -10 IAlg= 4 N=     2 NDim=    24 NE2=     5457918 trying DSYEV.
 RMSDP=1.13D-04 MaxDP=9.80D-04 DE=-1.44D-03 OVMax= 2.05D-03

 Cycle   5  Pass 0  IDiag  1:
 E= -76.2405705857965     Delta-E=       -0.000012623789 Rises=F Damp=F
 DIIS: error= 7.17D-05 at cycle   5 NSaved=   5.
 NSaved= 5 IEnMin= 5 EnMin= -76.2405705857965     IErMin= 5 ErrMin= 7.17D-05
 ErrMax= 7.17D-05 EMaxC= 1.00D-01 BMatC= 8.08D-08 BMatP= 1.25D-05
 IDIUse=1 WtCom= 1.00D+00 WtEn= 0.00D+00
 Coeff-Com:  0.945D-03-0.171D-01-0.323D-01-0.632D-01 0.111D+01
 Coeff:      0.945D-03-0.171D-01-0.323D-01-0.632D-01 0.111D+01
 Gap=     0.196 Goal=   None    Shift=    0.000

MKL ERROR: Parameter 10 was incorrect on entry to DSYEVD
 DSYEVD returned Info=         -10 IAlg= 4 N=     2 NDim=    24 NE2=     5457918 trying DSYEV.
 RMSDP=1.69D-05 MaxDP=1.91D-04 DE=-1.26D-05 OVMax= 3.41D-04

 Cycle   6  Pass 0  IDiag  1:
 E= -76.2405707254772     Delta-E=       -0.000000139681 Rises=F Damp=F
 DIIS: error= 8.77D-06 at cycle   6 NSaved=   6.
 NSaved= 6 IEnMin= 6 EnMin= -76.2405707254772     IErMin= 6 ErrMin= 8.77D-06
 ErrMax= 8.77D-06 EMaxC= 1.00D-01 BMatC= 1.39D-09 BMatP= 8.08D-08
 IDIUse=1 WtCom= 1.00D+00 WtEn= 0.00D+00
 Coeff-Com:  0.235D-03-0.120D-02-0.248D-02-0.615D-02-0.590D-01 0.107D+01
 Coeff:      0.235D-03-0.120D-02-0.248D-02-0.615D-02-0.590D-01 0.107D+01
 Gap=     0.196 Goal=   None    Shift=    0.000

MKL ERROR: Parameter 10 was incorrect on entry to DSYEVD
 DSYEVD returned Info=         -10 IAlg= 4 N=     2 NDim=    24 NE2=     5457918 trying DSYEV.
 RMSDP=2.19D-06 MaxDP=2.56D-05 DE=-1.40D-07 OVMax= 4.97D-05

 Initial convergence to 1.0D-05 achieved.  Increase integral accuracy.
 Cycle   7  Pass 1  IDiag  1:
 E= -76.2405784438319     Delta-E=       -0.000007718355 Rises=F Damp=F
 DIIS: error= 4.46D-06 at cycle   1 NSaved=   1.
 NSaved= 1 IEnMin= 1 EnMin= -76.2405784438319     IErMin= 1 ErrMin= 4.46D-06
 ErrMax= 4.46D-06 EMaxC= 1.00D-01 BMatC= 3.03D-10 BMatP= 3.03D-10
 IDIUse=1 WtCom= 1.00D+00 WtEn= 0.00D+00
 Coeff-Com:  0.100D+01
 Coeff:      0.100D+01
 Gap=     0.196 Goal=   None    Shift=    0.000

MKL ERROR: Parameter 10 was incorrect on entry to DSYEVD
 DSYEVD returned Info=         -10 IAlg= 4 N=     2 NDim=    24 NE2=     5457918 trying DSYEV.
 RMSDP=2.19D-06 MaxDP=2.56D-05 DE=-7.72D-06 OVMax= 2.25D-05

 Cycle   8  Pass 1  IDiag  1:
 E= -76.2405784425262     Delta-E=        0.000000001306 Rises=F Damp=F
 DIIS: error= 1.08D-05 at cycle   2 NSaved=   2.
 NSaved= 2 IEnMin= 1 EnMin= -76.2405784438319     IErMin= 1 ErrMin= 4.46D-06
 ErrMax= 1.08D-05 EMaxC= 1.00D-01 BMatC= 1.73D-09 BMatP= 3.03D-10
 IDIUse=1 WtCom= 1.00D+00 WtEn= 0.00D+00
 Coeff-Com:  0.714D+00 0.286D+00
 Coeff:      0.714D+00 0.286D+00
 Gap=     0.196 Goal=   None    Shift=    0.000

MKL ERROR: Parameter 10 was incorrect on entry to DSYEVD
 DSYEVD returned Info=         -10 IAlg= 4 N=     2 NDim=    24 NE2=     5457918 trying DSYEV.
 RMSDP=1.22D-06 MaxDP=1.10D-05 DE= 1.31D-09 OVMax= 1.86D-05

 Cycle   9  Pass 1  IDiag  1:
 E= -76.2405784440197     Delta-E=       -0.000000001494 Rises=F Damp=F
 DIIS: error= 1.89D-06 at cycle   3 NSaved=   3.
 NSaved= 3 IEnMin= 3 EnMin= -76.2405784440197     IErMin= 3 ErrMin= 1.89D-06
 ErrMax= 1.89D-06 EMaxC= 1.00D-01 BMatC= 4.97D-11 BMatP= 3.03D-10
 IDIUse=1 WtCom= 1.00D+00 WtEn= 0.00D+00
 Coeff-Com:  0.443D-01 0.151D+00 0.805D+00
 Coeff:      0.443D-01 0.151D+00 0.805D+00
 Gap=     0.196 Goal=   None    Shift=    0.000

MKL ERROR: Parameter 10 was incorrect on entry to DSYEVD
 DSYEVD returned Info=         -10 IAlg= 4 N=     2 NDim=    24 NE2=     5457918 trying DSYEV.
 RMSDP=2.14D-07 MaxDP=1.92D-06 DE=-1.49D-09 OVMax= 3.64D-06

 Cycle  10  Pass 1  IDiag  1:
 E= -76.2405784440676     Delta-E=       -0.000000000048 Rises=F Damp=F
 DIIS: error= 1.39D-07 at cycle   4 NSaved=   4.
 NSaved= 4 IEnMin= 4 EnMin= -76.2405784440676     IErMin= 4 ErrMin= 1.39D-07
 ErrMax= 1.39D-07 EMaxC= 1.00D-01 BMatC= 4.08D-13 BMatP= 4.97D-11
 IDIUse=1 WtCom= 1.00D+00 WtEn= 0.00D+00
 Coeff-Com: -0.139D-01 0.233D-01 0.218D+00 0.772D+00
 Coeff:     -0.139D-01 0.233D-01 0.218D+00 0.772D+00
 Gap=     0.196 Goal=   None    Shift=    0.000

MKL ERROR: Parameter 10 was incorrect on entry to DSYEVD
 DSYEVD returned Info=         -10 IAlg= 4 N=     2 NDim=    24 NE2=     5457918 trying DSYEV.
 RMSDP=2.02D-08 MaxDP=1.55D-07 DE=-4.78D-11 OVMax= 3.55D-07

 Cycle  11  Pass 1  IDiag  1:
 E= -76.2405784440679     Delta-E=        0.000000000000 Rises=F Damp=F
 DIIS: error= 2.13D-08 at cycle   5 NSaved=   5.
 NSaved= 5 IEnMin= 5 EnMin= -76.2405784440679     IErMin= 5 ErrMin= 2.13D-08
 ErrMax= 2.13D-08 EMaxC= 1.00D-01 BMatC= 1.13D-14 BMatP= 4.08D-13
 IDIUse=1 WtCom= 1.00D+00 WtEn= 0.00D+00
 Coeff-Com: -0.186D-03-0.541D-02-0.184D-01-0.256D-01 0.105D+01
 Coeff:     -0.186D-03-0.541D-02-0.184D-01-0.256D-01 0.105D+01
 Gap=     0.196 Goal=   None    Shift=    0.000

MKL ERROR: Parameter 10 was incorrect on entry to DSYEVD
 DSYEVD returned Info=         -10 IAlg= 4 N=     2 NDim=    24 NE2=     5457918 trying DSYEV.
 RMSDP=4.24D-09 MaxDP=5.14D-08 DE=-3.41D-13 OVMax= 9.90D-08

 SCF Done:  E(RB3LYP) =  -76.2405784441     A.U. after   11 cycles
             Convg  =    0.4239D-08             -V/T =  2.0126
 KE= 7.529044719215D+01 PE=-1.922614483374D+02 EE= 3.472438410415D+01
 Leave Link  502 at Sat Mar 22 13:20:05 2014, MaxMem=  131072000 cpu:       0.9
 (Enter /home/mdsoft/gaussian/g09/l701.exe)
 Compute integral first derivatives.
 ... and contract with generalized density number  0.
 Leave Link  701 at Sat Mar 22 13:20:06 2014, MaxMem=  131072000 cpu:       1.0
 (Enter /home/mdsoft/gaussian/g09/l702.exe)
 L702 exits ... SP integral derivatives will be done elsewhere.
 Leave Link  702 at Sat Mar 22 13:20:06 2014, MaxMem=  131072000 cpu:       0.1
 (Enter /home/mdsoft/gaussian/g09/l703.exe)
 Compute integral first derivatives, UseDBF=F ICtDFT=           0.
 Integral derivatives from FoFDir, PRISM(SPDF).
 Calling FoFJK, ICntrl=      2127 FMM=F ISym2X=1 I1Cent= 0 IOpClX= 0 NMat=1 NMatS=1 NMatT=0.
 FoFCou: FMM=F IPFlag=           0 FMFlag=      100000 FMFlg1=         800
         NFxFlg=           0 DoJE=F BraDBF=F KetDBF=F FulRan=T
         Omega=  0.000000  0.000000  1.000000  0.000000  0.000000 ICntrl=    2127 IOpCl=  0
         NMat0=    1 NMatS0=    1 NMatT0=    0 NMatD0=    1 NMtDS0=    0 NMtDT0=    0
         I1Cent=           0 NGrid=           0.
 Petite list used in FoFCou.
 Leave Link  703 at Sat Mar 22 13:20:06 2014, MaxMem=  131072000 cpu:       1.0
 (Enter /home/mdsoft/gaussian/g09/l716.exe)
 Dipole        =-3.96396654D-17 0.00000000D+00-8.92875896D-01
 ***** Axes restored to original set *****
 -------------------------------------------------------------------
 Center     Atomic                   Forces (Hartrees/Bohr)
 Number     Number              X              Y              Z
 -------------------------------------------------------------------
      1        8           0.000000000    0.000000000   -0.177876778
      2        1           0.054822426    0.000000000    0.088938389
      3        1          -0.054822426    0.000000000    0.088938389
 -------------------------------------------------------------------
 Cartesian Forces:  Max     0.177876778 RMS     0.077079482
 Leave Link  716 at Sat Mar 22 13:20:06 2014, MaxMem=  131072000 cpu:       0.1
 (Enter /home/mdsoft/gaussian/g09/l103.exe)

 GradGradGradGradGradGradGradGradGradGradGradGradGradGradGradGradGradGrad
 Berny optimization.
 Using GEDIIS/GDIIS optimizer.
 Internal  Forces:  Max     0.104045654 RMS     0.086329375
 Search for a local minimum.
 Step number   2 out of a maximum of   20
 All quantities printed in internal units (Hartrees-Bohrs-Radians)
 RMS Force = .86329D-01 SwitMx=.10000D-02 MixMth= 1
 Mixed Optimization -- RFO/linear search
 Update second derivatives using D2CorX and points    1    2
 DE= -4.33D-02 DEPred=-3.75D-02 R= 1.15D+00
 SS=  1.41D+00  RLast= 3.00D-01 DXNew= 5.0454D-01 9.0000D-01
 Trust test= 1.15D+00 RLast= 3.00D-01 DXMaxT set to 5.05D-01
 The second derivative matrix:
                          R1        R2        A1
           R1           0.03194
           R2          -0.06002   0.03194
           A1           0.02610   0.02610   0.14358
 ITU=  1  0
 Use linear search instead of GDIIS.
     Eigenvalues ---   -0.03567   0.09196   0.15118
 Eigenvalue     1 is  -3.57D-02 should be greater than     0.000000 Eigenvector:
                          R2        R1        A1
   1                    0.69258   0.69258  -0.20167
 RFO step:  Lambda=-1.68397477D-01 EMin=-3.56722385D-02
 Skip linear search -- no minimum in search direction.
 Maximum step size (   0.505) exceeded in Quadratic search.
    -- Step size scaled by   0.505
 Iteration  1 RMS(Cart)=  0.11396661 RMS(Int)=  0.12557449
 Iteration  2 RMS(Cart)=  0.10119278 RMS(Int)=  0.00026438
 Iteration  3 RMS(Cart)=  0.00038522 RMS(Int)=  0.00000005
 Iteration  4 RMS(Cart)=  0.00000004 RMS(Int)=  0.00000000
 ClnCor:  largest displacement from symmetrization is 9.99D-16 for atom     1.
 Variable       Old X    -DE/DX   Delta X   Delta X   Delta X     New X
                                 (Linear)    (Quad)   (Total)
    R1        2.80276  -0.10405   0.00000  -0.35023  -0.35023   2.45254
    R2        2.80276  -0.10405   0.00000  -0.35023  -0.35023   2.45254
    A1        1.28669   0.02659   0.00000   0.09614   0.09614   1.38283
         Item               Value     Threshold  Converged?
 Maximum Force            0.104046     0.000450     NO 
 RMS     Force            0.086329     0.000300     NO 
 Maximum Displacement     0.235448     0.001800     NO 
 RMS     Displacement     0.192153     0.001200     NO 
 Predicted change in Energy=-7.997295D-02
 GradGradGradGradGradGradGradGradGradGradGradGradGradGradGradGradGradGrad

 Leave Link  103 at Sat Mar 22 13:20:06 2014, MaxMem=  131072000 cpu:       0.0
 (Enter /home/mdsoft/gaussian/g09/l202.exe)
                          Input orientation:                          
 ---------------------------------------------------------------------
 Center     Atomic      Atomic             Coordinates (Angstroms)
 Number     Number       Type             X           Y           Z
 ---------------------------------------------------------------------
      1          8           0        0.000000    0.000000    0.485963
      2          1           0       -0.827529    0.000000   -0.513812
      3          1           0        0.827529    0.000000   -0.513812
 ---------------------------------------------------------------------
                    Distance matrix (angstroms):
                    1          2          3
     1  O    0.000000
     2  H    1.297827   0.000000
     3  H    1.297827   1.655058   0.000000
 Stoichiometry    H2O
 Framework group  C2V[C2(O),SGV(H2)]
 Deg. of freedom     2
 Full point group                 C2V     NOp   4
 RotChk:  IX=0 Diff= 3.87D-16
 Largest Abelian subgroup         C2V     NOp   4
 Largest concise Abelian subgroup C2      NOp   2
                         Standard orientation:                         
 ---------------------------------------------------------------------
 Center     Atomic      Atomic             Coordinates (Angstroms)
 Number     Number       Type             X           Y           Z
 ---------------------------------------------------------------------
      1          8           0        0.000000    0.000000    0.199955
      2          1           0        0.000000    0.827529   -0.799820
      3          1           0        0.000000   -0.827529   -0.799820
 ---------------------------------------------------------------------
 Rotational constants (GHZ):    366.1301453    282.4505449    159.4460961
 Leave Link  202 at Sat Mar 22 13:20:06 2014, MaxMem=  131072000 cpu:       0.0
 (Enter /home/mdsoft/gaussian/g09/l301.exe)
 Standard basis: CC-pVDZ (5D, 7F)
 Ernie: Thresh=  0.10000D-02 Tol=  0.10000D-05 Strict=F.
 Ernie:  2 primitive shells out of 32 were deleted.
 There are    11 symmetry adapted basis functions of A1  symmetry.
 There are     2 symmetry adapted basis functions of A2  symmetry.
 There are     4 symmetry adapted basis functions of B1  symmetry.
 There are     7 symmetry adapted basis functions of B2  symmetry.
 Integral buffers will be    131072 words long.
 Raffenetti 2 integral format.
 Two-electron integral symmetry is turned on.
    24 basis functions,    47 primitive gaussians,    25 cartesian basis functions
     5 alpha electrons        5 beta electrons
       nuclear repulsion energy         6.8435870291 Hartrees.
 IExCor=  402 DFT=T Ex+Corr=B3LYP ExCW=0 ScaHFX=  0.200000
 ScaDFX=  0.800000  0.720000  1.000000  0.810000 ScalE2=  1.000000  1.000000
 IRadAn=      0 IRanWt=     -1 IRanGd=            0 ICorTp=0
 NAtoms=    3 NActive=    3 NUniq=    2 SFac= 2.25D+00 NAtFMM=   60 NAOKFM=F Big=F
 Leave Link  301 at Sat Mar 22 13:20:06 2014, MaxMem=  131072000 cpu:       0.3
 (Enter /home/mdsoft/gaussian/g09/l302.exe)
 NPDir=0 NMtPBC=     1 NCelOv=     1 NCel=       1 NClECP=     1 NCelD=      1
         NCelK=      1 NCelE2=     1 NClLst=     1 CellRange=     0.0.
 One-electron integrals computed using PRISM.
 One-electron integral symmetry used in STVInt
 NBasis=    24 RedAO= T  NBF=    11     2     4     7
 NBsUse=    24 1.00D-06 NBFU=    11     2     4     7
 Precomputing XC quadrature grid using
 IXCGrd= 2 IRadAn=           0 IRanWt=          -1 IRanGd=           0 AccXCQ= 0.00D+00.
 NRdTot=     186 NPtTot=       23360 NUsed=       24714 NTot=       24746
 NSgBfM=    25    25    25    25    25 NAtAll=     3     3.
 Leave Link  302 at Sat Mar 22 13:20:06 2014, MaxMem=  131072000 cpu:       1.0
 (Enter /home/mdsoft/gaussian/g09/l303.exe)
 DipDrv:  MaxL=1.
 Leave Link  303 at Sat Mar 22 13:20:06 2014, MaxMem=  131072000 cpu:       0.1
 (Enter /home/mdsoft/gaussian/g09/l401.exe)
 Initial guess read from the read-write file.
 B after Tr=     0.000000    0.000000    0.000000
         Rot=    1.000000    0.000000    0.000000    0.000000 Ang=   0.00 deg.
 Guess basis will be translated and rotated to current coordinates.
 Initial guess orbital symmetries:
       Occupied  (A1) (A1) (A1) (B2) (B1)
       Virtual   (A1) (B2) (B2) (A1) (B1) (A1) (B2) (A1) (A1) (A2)
                 (B1) (B2) (B2) (A1) (A1) (A2) (B1) (A1) (B2)
 The electronic state of the initial guess is 1-A1.
 Generating alternative initial guess.
 Harris functional with IExCor=  402 diagonalized for initial guess.
 ExpMin= 1.22D-01 ExpMax= 1.17D+04 ExpMxC= 4.01D+02 IAcc=1 IRadAn=         1 AccDes= 0.00D+00
 HarFok:  IExCor=  402 AccDes= 0.00D+00 IRadAn=         1 IDoV= 1
 ScaDFX=  1.000000  1.000000  1.000000  1.000000
 FoFCou: FMM=F IPFlag=           0 FMFlag=      100000 FMFlg1=           0
         NFxFlg=           0 DoJE=T BraDBF=F KetDBF=T FulRan=T
         Omega=  0.000000  0.000000  1.000000  0.000000  0.000000 ICntrl=     500 IOpCl=  0
         NMat0=    1 NMatS0=    1 NMatT0=    0 NMatD0=    1 NMtDS0=    0 NMtDT0=    0
         I1Cent=           4 NGrid=           0.
 Petite list used in FoFCou.

MKL ERROR: Parameter 10 was incorrect on entry to DSYEVD
 DSYEVD returned Info=         -10 IAlg= 4 N=     2 NDim=    24 NE2=     5461268 trying DSYEV.
 Harris En= -76.3488628974226    
 Leave Link  401 at Sat Mar 22 13:20:06 2014, MaxMem=  131072000 cpu:       1.4
 (Enter /home/mdsoft/gaussian/g09/l502.exe)
 Closed shell SCF:
 Requested convergence on RMS density matrix=1.00D-08 within 128 cycles.
 Requested convergence on MAX density matrix=1.00D-06.
 Requested convergence on             energy=1.00D-06.
 No special actions if energy rises.
 Using DIIS extrapolation, IDIIS=  1040.
 Integral symmetry usage will be decided dynamically.
        24674 words used for storage of precomputed grid.
 Keep R1 ints in memory in canonical form, NReq=956458.
 IEnd=       45147 IEndB=       45147 NGot=   131072000 MDV=   130991141
 LenX=   130991141 LenY=   130990075
 Symmetry not used in FoFDir.
 MinBra= 0 MaxBra= 2 Meth= 1.
 IRaf=       0 NMat=   1 IRICut=       1 DoRegI=T DoRafI=F ISym2E= 0 JSym2E=0.
 Integral accuracy reduced to 1.0D-05 until final iterations.

 Cycle   1  Pass 0  IDiag  1:
 E= -76.3107938330414    
 DIIS: error= 1.52D-02 at cycle   1 NSaved=   1.
 NSaved= 1 IEnMin= 1 EnMin= -76.3107938330414     IErMin= 1 ErrMin= 1.52D-02
 ErrMax= 1.52D-02 EMaxC= 1.00D-01 BMatC= 4.74D-03 BMatP= 4.74D-03
 IDIUse=3 WtCom= 8.48D-01 WtEn= 1.52D-01
 Coeff-Com:  0.100D+01
 Coeff-En:   0.100D+01
 Coeff:      0.100D+01
 Recover alternate guess density for next cycle.
 RMSDP=1.03D-02 MaxDP=1.05D-01              OVMax= 0.00D+00

 Cycle   2  Pass 0  IDiag  1:
 E= -76.2394611274607     Delta-E=        0.071332705581 Rises=F Damp=F
 Switch densities from cycles 1 and 2 for lowest energy.
 DIIS: error= 7.40D-02 at cycle   2 NSaved=   2.
 NSaved= 2 IEnMin= 1 EnMin= -76.3107938330414     IErMin= 1 ErrMin= 1.52D-02
 ErrMax= 7.40D-02 EMaxC= 1.00D+00 BMatC= 8.11D-02 BMatP= 4.74D-03
 IDIUse=1 WtCom= 1.00D+00 WtEn= 0.00D+00
 Coeff-Com:  0.897D+00 0.103D+00
 Coeff:      0.897D+00 0.103D+00
 Gap=     0.290 Goal=   None    Shift=    0.000

MKL ERROR: Parameter 10 was incorrect on entry to DSYEVD
 DSYEVD returned Info=         -10 IAlg= 4 N=     2 NDim=    24 NE2=     5457918 trying DSYEV.
 RMSDP=4.00D-03 MaxDP=2.46D-02 DE= 7.13D-02 OVMax= 5.27D-02

 Cycle   3  Pass 0  IDiag  1:
 E= -76.3181025598376     Delta-E=       -0.078641432377 Rises=F Damp=F
 DIIS: error= 3.63D-03 at cycle   3 NSaved=   3.
 NSaved= 3 IEnMin= 3 EnMin= -76.3181025598376     IErMin= 3 ErrMin= 3.63D-03
 ErrMax= 3.63D-03 EMaxC= 1.00D+00 BMatC= 2.44D-04 BMatP= 4.74D-03
 IDIUse=1 WtCom= 1.00D+00 WtEn= 0.00D+00
 Coeff-Com:  0.513D-01 0.410D-01 0.908D+00
 Coeff:      0.513D-01 0.410D-01 0.908D+00
 Gap=     0.243 Goal=   None    Shift=    0.000

MKL ERROR: Parameter 10 was incorrect on entry to DSYEVD
 DSYEVD returned Info=         -10 IAlg= 4 N=     2 NDim=    24 NE2=     5457918 trying DSYEV.
 RMSDP=6.68D-04 MaxDP=5.73D-03 DE=-7.86D-02 OVMax= 1.12D-02

 Cycle   4  Pass 0  IDiag  1:
 E= -76.3183714738983     Delta-E=       -0.000268914061 Rises=F Damp=F
 DIIS: error= 9.82D-04 at cycle   4 NSaved=   4.
 NSaved= 4 IEnMin= 4 EnMin= -76.3183714738983     IErMin= 4 ErrMin= 9.82D-04
 ErrMax= 9.82D-04 EMaxC= 1.00D+00 BMatC= 1.67D-05 BMatP= 2.44D-04
 IDIUse=1 WtCom= 1.00D+00 WtEn= 0.00D+00
 Coeff-Com: -0.160D-01 0.988D-02 0.233D+00 0.773D+00
 Coeff:     -0.160D-01 0.988D-02 0.233D+00 0.773D+00
 Gap=     0.243 Goal=   None    Shift=    0.000

MKL ERROR: Parameter 10 was incorrect on entry to DSYEVD
 DSYEVD returned Info=         -10 IAlg= 4 N=     2 NDim=    24 NE2=     5457918 trying DSYEV.
 RMSDP=1.08D-04 MaxDP=6.53D-04 DE=-2.69D-04 OVMax= 1.39D-03

 Cycle   5  Pass 0  IDiag  1:
 E= -76.3183848034716     Delta-E=       -0.000013329573 Rises=F Damp=F
 DIIS: error= 1.05D-04 at cycle   5 NSaved=   5.
 NSaved= 5 IEnMin= 5 EnMin= -76.3183848034716     IErMin= 5 ErrMin= 1.05D-04
 ErrMax= 1.05D-04 EMaxC= 1.00D+00 BMatC= 1.75D-07 BMatP= 1.67D-05
 IDIUse=1 WtCom= 1.00D+00 WtEn= 0.00D+00
 Coeff-Com:  0.554D-03 0.397D-03-0.220D-01-0.759D-01 0.110D+01
 Coeff:      0.554D-03 0.397D-03-0.220D-01-0.759D-01 0.110D+01
 Gap=     0.243 Goal=   None    Shift=    0.000

MKL ERROR: Parameter 10 was incorrect on entry to DSYEVD
 DSYEVD returned Info=         -10 IAlg= 4 N=     2 NDim=    24 NE2=     5457918 trying DSYEV.
 RMSDP=2.43D-05 MaxDP=2.75D-04 DE=-1.33D-05 OVMax= 4.62D-04

 Cycle   6  Pass 0  IDiag  1:
 E= -76.3183850891375     Delta-E=       -0.000000285666 Rises=F Damp=F
 DIIS: error= 6.02D-06 at cycle   6 NSaved=   6.
 NSaved= 6 IEnMin= 6 EnMin= -76.3183850891375     IErMin= 6 ErrMin= 6.02D-06
 ErrMax= 6.02D-06 EMaxC= 1.00D+00 BMatC= 5.88D-10 BMatP= 1.75D-07
 IDIUse=1 WtCom= 1.00D+00 WtEn= 0.00D+00
 Coeff-Com:  0.133D-03-0.953D-04-0.122D-02-0.249D-02-0.727D-01 0.108D+01
 Coeff:      0.133D-03-0.953D-04-0.122D-02-0.249D-02-0.727D-01 0.108D+01
 Gap=     0.243 Goal=   None    Shift=    0.000

MKL ERROR: Parameter 10 was incorrect on entry to DSYEVD
 DSYEVD returned Info=         -10 IAlg= 4 N=     2 NDim=    24 NE2=     5457918 trying DSYEV.
 RMSDP=2.41D-06 MaxDP=2.29D-05 DE=-2.86D-07 OVMax= 4.13D-05

 Initial convergence to 1.0D-05 achieved.  Increase integral accuracy.
 Cycle   7  Pass 1  IDiag  1:
 E= -76.3183902511135     Delta-E=       -0.000005161976 Rises=F Damp=F
 DIIS: error= 4.28D-06 at cycle   1 NSaved=   1.
 NSaved= 1 IEnMin= 1 EnMin= -76.3183902511135     IErMin= 1 ErrMin= 4.28D-06
 ErrMax= 4.28D-06 EMaxC= 1.00D+00 BMatC= 1.98D-10 BMatP= 1.98D-10
 IDIUse=1 WtCom= 1.00D+00 WtEn= 0.00D+00
 Coeff-Com:  0.100D+01
 Coeff:      0.100D+01
 Gap=     0.243 Goal=   None    Shift=    0.000

MKL ERROR: Parameter 10 was incorrect on entry to DSYEVD
 DSYEVD returned Info=         -10 IAlg= 4 N=     2 NDim=    24 NE2=     5457918 trying DSYEV.
 RMSDP=2.41D-06 MaxDP=2.29D-05 DE=-5.16D-06 OVMax= 5.66D-06

 Cycle   8  Pass 1  IDiag  1:
 E= -76.3183902511980     Delta-E=       -0.000000000084 Rises=F Damp=F
 DIIS: error= 2.70D-06 at cycle   2 NSaved=   2.
 NSaved= 2 IEnMin= 2 EnMin= -76.3183902511980     IErMin= 2 ErrMin= 2.70D-06
 ErrMax= 2.70D-06 EMaxC= 1.00D+00 BMatC= 1.09D-10 BMatP= 1.98D-10
 IDIUse=1 WtCom= 1.00D+00 WtEn= 0.00D+00
 Coeff-Com:  0.402D+00 0.598D+00
 Coeff:      0.402D+00 0.598D+00
 Gap=     0.243 Goal=   None    Shift=    0.000

MKL ERROR: Parameter 10 was incorrect on entry to DSYEVD
 DSYEVD returned Info=         -10 IAlg= 4 N=     2 NDim=    24 NE2=     5457918 trying DSYEV.
 RMSDP=4.84D-07 MaxDP=4.59D-06 DE=-8.45D-11 OVMax= 6.77D-06

 Cycle   9  Pass 1  IDiag  1:
 E= -76.3183902512045     Delta-E=       -0.000000000007 Rises=F Damp=F
 DIIS: error= 2.41D-06 at cycle   3 NSaved=   3.
 NSaved= 3 IEnMin= 3 EnMin= -76.3183902512045     IErMin= 3 ErrMin= 2.41D-06
 ErrMax= 2.41D-06 EMaxC= 1.00D+00 BMatC= 9.49D-11 BMatP= 1.09D-10
 IDIUse=1 WtCom= 1.00D+00 WtEn= 0.00D+00
 Coeff-Com:  0.472D-01 0.476D+00 0.477D+00
 Coeff:      0.472D-01 0.476D+00 0.477D+00
 Gap=     0.243 Goal=   None    Shift=    0.000

MKL ERROR: Parameter 10 was incorrect on entry to DSYEVD
 DSYEVD returned Info=         -10 IAlg= 4 N=     2 NDim=    24 NE2=     5457918 trying DSYEV.
 RMSDP=2.64D-07 MaxDP=2.28D-06 DE=-6.51D-12 OVMax= 3.61D-06

 Cycle  10  Pass 1  IDiag  1:
 E= -76.3183902512841     Delta-E=       -0.000000000080 Rises=F Damp=F
 DIIS: error= 1.78D-07 at cycle   4 NSaved=   4.
 NSaved= 4 IEnMin= 4 EnMin= -76.3183902512841     IErMin= 4 ErrMin= 1.78D-07
 ErrMax= 1.78D-07 EMaxC= 1.00D+00 BMatC= 5.08D-13 BMatP= 9.49D-11
 IDIUse=1 WtCom= 1.00D+00 WtEn= 0.00D+00
 Coeff-Com: -0.117D-01 0.101D+00 0.146D+00 0.764D+00
 Coeff:     -0.117D-01 0.101D+00 0.146D+00 0.764D+00
 Gap=     0.243 Goal=   None    Shift=    0.000

MKL ERROR: Parameter 10 was incorrect on entry to DSYEVD
 DSYEVD returned Info=         -10 IAlg= 4 N=     2 NDim=    24 NE2=     5457918 trying DSYEV.
 RMSDP=2.04D-08 MaxDP=1.40D-07 DE=-7.97D-11 OVMax= 2.86D-07

 Cycle  11  Pass 1  IDiag  1:
 E= -76.3183902512846     Delta-E=        0.000000000000 Rises=F Damp=F
 DIIS: error= 1.01D-08 at cycle   5 NSaved=   5.
 NSaved= 5 IEnMin= 5 EnMin= -76.3183902512846     IErMin= 5 ErrMin= 1.01D-08
 ErrMax= 1.01D-08 EMaxC= 1.00D+00 BMatC= 7.56D-16 BMatP= 5.08D-13
 IDIUse=1 WtCom= 1.00D+00 WtEn= 0.00D+00
 Coeff-Com:  0.666D-03-0.898D-02-0.931D-02-0.521D-01 0.107D+01
 Coeff:      0.666D-03-0.898D-02-0.931D-02-0.521D-01 0.107D+01
 Gap=     0.243 Goal=   None    Shift=    0.000

MKL ERROR: Parameter 10 was incorrect on entry to DSYEVD
 DSYEVD returned Info=         -10 IAlg= 4 N=     2 NDim=    24 NE2=     5457918 trying DSYEV.
 RMSDP=1.38D-09 MaxDP=1.74D-08 DE=-4.55D-13 OVMax= 2.66D-08

 SCF Done:  E(RB3LYP) =  -76.3183902513     A.U. after   11 cycles
             Convg  =    0.1382D-08             -V/T =  2.0117
 KE= 7.543268287566D+01 PE=-1.941227911760D+02 EE= 3.552813101992D+01
 Leave Link  502 at Sat Mar 22 13:20:06 2014, MaxMem=  131072000 cpu:       0.9
 (Enter /home/mdsoft/gaussian/g09/l701.exe)
 Compute integral first derivatives.
 ... and contract with generalized density number  0.
 Leave Link  701 at Sat Mar 22 13:20:07 2014, MaxMem=  131072000 cpu:       1.0
 (Enter /home/mdsoft/gaussian/g09/l702.exe)
 L702 exits ... SP integral derivatives will be done elsewhere.
 Leave Link  702 at Sat Mar 22 13:20:07 2014, MaxMem=  131072000 cpu:       0.1
 (Enter /home/mdsoft/gaussian/g09/l703.exe)
 Compute integral first derivatives, UseDBF=F ICtDFT=           0.
 Integral derivatives from FoFDir, PRISM(SPDF).
 Calling FoFJK, ICntrl=      2127 FMM=F ISym2X=1 I1Cent= 0 IOpClX= 0 NMat=1 NMatS=1 NMatT=0.
 FoFCou: FMM=F IPFlag=           0 FMFlag=      100000 FMFlg1=         800
         NFxFlg=           0 DoJE=F BraDBF=F KetDBF=F FulRan=T
         Omega=  0.000000  0.000000  1.000000  0.000000  0.000000 ICntrl=    2127 IOpCl=  0
         NMat0=    1 NMatS0=    1 NMatT0=    0 NMatD0=    1 NMtDS0=    0 NMtDT0=    0
         I1Cent=           0 NGrid=           0.
 Petite list used in FoFCou.
 Leave Link  703 at Sat Mar 22 13:20:07 2014, MaxMem=  131072000 cpu:       1.0
 (Enter /home/mdsoft/gaussian/g09/l716.exe)
 Dipole        =-3.75890731D-17 0.00000000D+00-8.83912520D-01
 ***** Axes restored to original set *****
 -------------------------------------------------------------------
 Center     Atomic                   Forces (Hartrees/Bohr)
 Number     Number              X              Y              Z
 -------------------------------------------------------------------
      1        8           0.000000000    0.000000000   -0.181991000
      2        1           0.058056868    0.000000000    0.090995500
      3        1          -0.058056868    0.000000000    0.090995500
 -------------------------------------------------------------------
 Cartesian Forces:  Max     0.181991000 RMS     0.079177919
 Leave Link  716 at Sat Mar 22 13:20:07 2014, MaxMem=  131072000 cpu:       0.1
 (Enter /home/mdsoft/gaussian/g09/l103.exe)

 GradGradGradGradGradGradGradGradGradGradGradGradGradGradGradGradGradGrad
 Berny optimization.
 Using GEDIIS/GDIIS optimizer.
 Internal  Forces:  Max     0.107116586 RMS     0.089464101
 Search for a local minimum.
 Step number   3 out of a maximum of   20
 All quantities printed in internal units (Hartrees-Bohrs-Radians)
 RMS Force = .89464D-01 SwitMx=.10000D-02 MixMth= 1
 Mixed Optimization -- RFO/linear search
 Update second derivatives using D2CorX and points    2    3
 DE= -7.78D-02 DEPred=-8.00D-02 R= 9.73D-01
 SS=  1.41D+00  RLast= 5.05D-01 DXNew= 8.4853D-01 1.5136D+00
 Trust test= 9.73D-01 RLast= 5.05D-01 DXMaxT set to 8.49D-01
 The second derivative matrix:
                          R1        R2        A1
           R1           0.04527
           R2          -0.04669   0.04527
           A1           0.02678   0.02678   0.13252
 ITU=  1  1  0
 Use linear search instead of GDIIS.
     Eigenvalues ---   -0.01138   0.09196   0.14249
 Eigenvalue     1 is  -1.14D-02 should be greater than     0.000000 Eigenvector:
                          R1        R2        A1
   1                    0.68382   0.68382  -0.25450
 RFO step:  Lambda=-1.60672372D-01 EMin=-1.13841233D-02
 Skip linear search -- no minimum in search direction.
 Maximum step size (   0.849) exceeded in Quadratic search.
    -- Step size scaled by   0.848
 Iteration  1 RMS(Cart)=  0.15285994 RMS(Int)=  0.32390500
 Iteration  2 RMS(Cart)=  0.14085268 RMS(Int)=  0.16053585
 Iteration  3 RMS(Cart)=  0.13076378 RMS(Int)=  0.00009800
 Iteration  4 RMS(Cart)=  0.00010576 RMS(Int)=  0.00000001
 Iteration  5 RMS(Cart)=  0.00000000 RMS(Int)=  0.00000000
 ClnCor:  largest displacement from symmetrization is 1.91D-15 for atom     3.
 Variable       Old X    -DE/DX   Delta X   Delta X   Delta X     New X
                                 (Linear)    (Quad)   (Total)
    R1        2.45254  -0.10712   0.00000  -0.58362  -0.58362   1.86892
    R2        2.45254  -0.10712   0.00000  -0.58362  -0.58362   1.86892
    A1        1.38283   0.03261   0.00000   0.19691   0.19691   1.57974
         Item               Value     Threshold  Converged?
 Maximum Force            0.107117     0.000450     NO 
 RMS     Force            0.089464     0.000300     NO 
 Maximum Displacement     0.382466     0.001800     NO 
 RMS     Displacement     0.332253     0.001200     NO 
 Predicted change in Energy=-1.355212D-01
 GradGradGradGradGradGradGradGradGradGradGradGradGradGradGradGradGradGrad

 Leave Link  103 at Sat Mar 22 13:20:07 2014, MaxMem=  131072000 cpu:       0.0
 (Enter /home/mdsoft/gaussian/g09/l202.exe)
                          Input orientation:                          
 ---------------------------------------------------------------------
 Center     Atomic      Atomic             Coordinates (Angstroms)
 Number     Number       Type             X           Y           Z
 ---------------------------------------------------------------------
      1          8           0        0.000000    0.000000    0.283571
      2          1           0       -0.702440    0.000000   -0.412616
      3          1           0        0.702440    0.000000   -0.412616
 ---------------------------------------------------------------------
                    Distance matrix (angstroms):
                    1          2          3
     1  O    0.000000
     2  H    0.988989   0.000000
     3  H    0.988989   1.404880   0.000000
 Stoichiometry    H2O
 Framework group  C2V[C2(O),SGV(H2)]
 Deg. of freedom     2
 Full point group                 C2V     NOp   4
 RotChk:  IX=0 Diff= 6.44D-16
 Largest Abelian subgroup         C2V     NOp   4
 Largest concise Abelian subgroup C2      NOp   2
                         Standard orientation:                         
 ---------------------------------------------------------------------
 Center     Atomic      Atomic             Coordinates (Angstroms)
 Number     Number       Type             X           Y           Z
 ---------------------------------------------------------------------
      1          8           0        0.000000    0.000000    0.139237
      2          1           0        0.000000    0.702440   -0.556950
      3          1           0        0.000000   -0.702440   -0.556950
 ---------------------------------------------------------------------
 Rotational constants (GHZ):    582.4997191    508.1399785    271.3924639
 Leave Link  202 at Sat Mar 22 13:20:07 2014, MaxMem=  131072000 cpu:       0.0
 (Enter /home/mdsoft/gaussian/g09/l301.exe)
 Standard basis: CC-pVDZ (5D, 7F)
 Ernie: Thresh=  0.10000D-02 Tol=  0.10000D-05 Strict=F.
 Ernie:  2 primitive shells out of 32 were deleted.
 There are    11 symmetry adapted basis functions of A1  symmetry.
 There are     2 symmetry adapted basis functions of A2  symmetry.
 There are     4 symmetry adapted basis functions of B1  symmetry.
 There are     7 symmetry adapted basis functions of B2  symmetry.
 Integral buffers will be    131072 words long.
 Raffenetti 2 integral format.
 Two-electron integral symmetry is turned on.
    24 basis functions,    47 primitive gaussians,    25 cartesian basis functions
     5 alpha electrons        5 beta electrons
       nuclear repulsion energy         8.9377757092 Hartrees.
 IExCor=  402 DFT=T Ex+Corr=B3LYP ExCW=0 ScaHFX=  0.200000
 ScaDFX=  0.800000  0.720000  1.000000  0.810000 ScalE2=  1.000000  1.000000
 IRadAn=      0 IRanWt=     -1 IRanGd=            0 ICorTp=0
 NAtoms=    3 NActive=    3 NUniq=    2 SFac= 2.25D+00 NAtFMM=   60 NAOKFM=F Big=F
 Leave Link  301 at Sat Mar 22 13:20:07 2014, MaxMem=  131072000 cpu:       0.3
 (Enter /home/mdsoft/gaussian/g09/l302.exe)
 NPDir=0 NMtPBC=     1 NCelOv=     1 NCel=       1 NClECP=     1 NCelD=      1
         NCelK=      1 NCelE2=     1 NClLst=     1 CellRange=     0.0.
 One-electron integrals computed using PRISM.
 One-electron integral symmetry used in STVInt
 NBasis=    24 RedAO= T  NBF=    11     2     4     7
 NBsUse=    24 1.00D-06 NBFU=    11     2     4     7
 Precomputing XC quadrature grid using
 IXCGrd= 2 IRadAn=           0 IRanWt=          -1 IRanGd=           0 AccXCQ= 0.00D+00.
 NRdTot=     186 NPtTot=       23360 NUsed=       24714 NTot=       24746
 NSgBfM=    25    25    25    25    25 NAtAll=     3     3.
 Leave Link  302 at Sat Mar 22 13:20:07 2014, MaxMem=  131072000 cpu:       1.0
 (Enter /home/mdsoft/gaussian/g09/l303.exe)
 DipDrv:  MaxL=1.
 Leave Link  303 at Sat Mar 22 13:20:07 2014, MaxMem=  131072000 cpu:       0.2
 (Enter /home/mdsoft/gaussian/g09/l401.exe)
 Initial guess read from the read-write file.
 B after Tr=     0.000000    0.000000    0.000000
         Rot=    1.000000    0.000000    0.000000    0.000000 Ang=   0.00 deg.
 Guess basis will be translated and rotated to current coordinates.
 Initial guess orbital symmetries:
       Occupied  (A1) (A1) (A1) (B2) (B1)
       Virtual   (A1) (B2) (B2) (A1) (B1) (A1) (B2) (A1) (A2) (B1)
                 (A1) (B2) (B2) (A1) (A2) (A1) (B1) (A1) (B2)
 The electronic state of the initial guess is 1-A1.
 Generating alternative initial guess.
 Harris functional with IExCor=  402 diagonalized for initial guess.
 ExpMin= 1.22D-01 ExpMax= 1.17D+04 ExpMxC= 4.01D+02 IAcc=1 IRadAn=         1 AccDes= 0.00D+00
 HarFok:  IExCor=  402 AccDes= 0.00D+00 IRadAn=         1 IDoV= 1
 ScaDFX=  1.000000  1.000000  1.000000  1.000000
 FoFCou: FMM=F IPFlag=           0 FMFlag=      100000 FMFlg1=           0
         NFxFlg=           0 DoJE=T BraDBF=F KetDBF=T FulRan=T
         Omega=  0.000000  0.000000  1.000000  0.000000  0.000000 ICntrl=     500 IOpCl=  0
         NMat0=    1 NMatS0=    1 NMatT0=    0 NMatD0=    1 NMtDS0=    0 NMtDT0=    0
         I1Cent=           4 NGrid=           0.
 Petite list used in FoFCou.

MKL ERROR: Parameter 10 was incorrect on entry to DSYEVD
 DSYEVD returned Info=         -10 IAlg= 4 N=     2 NDim=    24 NE2=     5461268 trying DSYEV.
 Harris En= -76.4478626029991    
 Leave Link  401 at Sat Mar 22 13:20:07 2014, MaxMem=  131072000 cpu:       1.4
 (Enter /home/mdsoft/gaussian/g09/l502.exe)
 Closed shell SCF:
 Requested convergence on RMS density matrix=1.00D-08 within 128 cycles.
 Requested convergence on MAX density matrix=1.00D-06.
 Requested convergence on             energy=1.00D-06.
 No special actions if energy rises.
 Using DIIS extrapolation, IDIIS=  1040.
 Integral symmetry usage will be decided dynamically.
        24674 words used for storage of precomputed grid.
 Keep R1 ints in memory in canonical form, NReq=956458.
 IEnd=       45147 IEndB=       45147 NGot=   131072000 MDV=   130991141
 LenX=   130991141 LenY=   130990075
 Symmetry not used in FoFDir.
 MinBra= 0 MaxBra= 2 Meth= 1.
 IRaf=       0 NMat=   1 IRICut=       1 DoRegI=T DoRafI=F ISym2E= 0 JSym2E=0.
 Integral accuracy reduced to 1.0D-05 until final iterations.

 Cycle   1  Pass 0  IDiag  1:
 E= -76.3762572915115    
 DIIS: error= 3.76D-02 at cycle   1 NSaved=   1.
 NSaved= 1 IEnMin= 1 EnMin= -76.3762572915115     IErMin= 1 ErrMin= 3.76D-02
 ErrMax= 3.76D-02 EMaxC= 1.00D-01 BMatC= 3.03D-02 BMatP= 3.03D-02
 IDIUse=3 WtCom= 6.24D-01 WtEn= 3.76D-01
 Coeff-Com:  0.100D+01
 Coeff-En:   0.100D+01
 Coeff:      0.100D+01
 Recover alternate guess density for next cycle.
 RMSDP=1.51D-02 MaxDP=1.21D-01              OVMax= 0.00D+00

 Cycle   2  Pass 0  IDiag  1:
 E= -76.3472922138421     Delta-E=        0.028965077669 Rises=F Damp=F
 Switch densities from cycles 1 and 2 for lowest energy.
 DIIS: error= 7.43D-02 at cycle   2 NSaved=   2.
 NSaved= 2 IEnMin= 1 EnMin= -76.3762572915115     IErMin= 1 ErrMin= 3.76D-02
 ErrMax= 7.43D-02 EMaxC= 1.00D+00 BMatC= 8.93D-02 BMatP= 3.03D-02
 IDIUse=1 WtCom= 1.00D+00 WtEn= 0.00D+00
 Coeff-Com:  0.702D+00 0.298D+00
 Coeff:      0.702D+00 0.298D+00
 Gap=     0.431 Goal=   None    Shift=    0.000

MKL ERROR: Parameter 10 was incorrect on entry to DSYEVD
 DSYEVD returned Info=         -10 IAlg= 4 N=     2 NDim=    24 NE2=     5457918 trying DSYEV.
 RMSDP=1.08D-02 MaxDP=6.60D-02 DE= 2.90D-02 OVMax= 1.02D-01

 Cycle   3  Pass 0  IDiag  1:
 E= -76.4128587490858     Delta-E=       -0.065566535244 Rises=F Damp=F
 DIIS: error= 1.43D-02 at cycle   3 NSaved=   3.
 NSaved= 3 IEnMin= 3 EnMin= -76.4128587490858     IErMin= 3 ErrMin= 1.43D-02
 ErrMax= 1.43D-02 EMaxC= 1.00D+00 BMatC= 4.70D-03 BMatP= 3.03D-02
 IDIUse=1 WtCom= 1.00D+00 WtEn= 0.00D+00
 Coeff-Com:  0.583D-01 0.176D+00 0.766D+00
 Coeff:      0.583D-01 0.176D+00 0.766D+00
 Gap=     0.331 Goal=   None    Shift=    0.000

MKL ERROR: Parameter 10 was incorrect on entry to DSYEVD
 DSYEVD returned Info=         -10 IAlg= 4 N=     2 NDim=    24 NE2=     5457918 trying DSYEV.
 RMSDP=1.92D-03 MaxDP=1.69D-02 DE=-6.56D-02 OVMax= 2.36D-02

 Cycle   4  Pass 0  IDiag  1:
 E= -76.4163827862974     Delta-E=       -0.003524037212 Rises=F Damp=F
 DIIS: error= 1.27D-03 at cycle   4 NSaved=   4.
 NSaved= 4 IEnMin= 4 EnMin= -76.4163827862974     IErMin= 4 ErrMin= 1.27D-03
 ErrMax= 1.27D-03 EMaxC= 1.00D+00 BMatC= 3.14D-05 BMatP= 4.70D-03
 IDIUse=1 WtCom= 1.00D+00 WtEn= 0.00D+00
 Coeff-Com: -0.744D-02 0.316D-01 0.136D+00 0.839D+00
 Coeff:     -0.744D-02 0.316D-01 0.136D+00 0.839D+00
 Gap=     0.331 Goal=   None    Shift=    0.000

MKL ERROR: Parameter 10 was incorrect on entry to DSYEVD
 DSYEVD returned Info=         -10 IAlg= 4 N=     2 NDim=    24 NE2=     5457918 trying DSYEV.
 RMSDP=1.55D-04 MaxDP=9.34D-04 DE=-3.52D-03 OVMax= 1.59D-03

 Cycle   5  Pass 0  IDiag  1:
 E= -76.4164060976134     Delta-E=       -0.000023311316 Rises=F Damp=F
 DIIS: error= 8.86D-05 at cycle   5 NSaved=   5.
 NSaved= 5 IEnMin= 5 EnMin= -76.4164060976134     IErMin= 5 ErrMin= 8.86D-05
 ErrMax= 8.86D-05 EMaxC= 1.00D+00 BMatC= 2.13D-07 BMatP= 3.14D-05
 IDIUse=1 WtCom= 1.00D+00 WtEn= 0.00D+00
 Coeff-Com: -0.161D-04-0.669D-03-0.935D-02-0.131D-01 0.102D+01
 Coeff:     -0.161D-04-0.669D-03-0.935D-02-0.131D-01 0.102D+01
 Gap=     0.331 Goal=   None    Shift=    0.000

MKL ERROR: Parameter 10 was incorrect on entry to DSYEVD
 DSYEVD returned Info=         -10 IAlg= 4 N=     2 NDim=    24 NE2=     5457918 trying DSYEV.
 RMSDP=1.98D-05 MaxDP=2.03D-04 DE=-2.33D-05 OVMax= 2.96D-04

 Cycle   6  Pass 0  IDiag  1:
 E= -76.4164063055341     Delta-E=       -0.000000207921 Rises=F Damp=F
 DIIS: error= 4.30D-06 at cycle   6 NSaved=   6.
 NSaved= 6 IEnMin= 6 EnMin= -76.4164063055341     IErMin= 6 ErrMin= 4.30D-06
 ErrMax= 4.30D-06 EMaxC= 1.00D+00 BMatC= 2.73D-10 BMatP= 2.13D-07
 IDIUse=1 WtCom= 1.00D+00 WtEn= 0.00D+00
 Coeff-Com:  0.173D-04-0.320D-04 0.168D-03-0.146D-02-0.644D-01 0.107D+01
 Coeff:      0.173D-04-0.320D-04 0.168D-03-0.146D-02-0.644D-01 0.107D+01
 Gap=     0.331 Goal=   None    Shift=    0.000

MKL ERROR: Parameter 10 was incorrect on entry to DSYEVD
 DSYEVD returned Info=         -10 IAlg= 4 N=     2 NDim=    24 NE2=     5457918 trying DSYEV.
 RMSDP=1.51D-06 MaxDP=1.31D-05 DE=-2.08D-07 OVMax= 2.36D-05

 Initial convergence to 1.0D-05 achieved.  Increase integral accuracy.
 Cycle   7  Pass 1  IDiag  1:
 E= -76.4164092809330     Delta-E=       -0.000002975399 Rises=F Damp=F
 DIIS: error= 2.57D-06 at cycle   1 NSaved=   1.
 NSaved= 1 IEnMin= 1 EnMin= -76.4164092809330     IErMin= 1 ErrMin= 2.57D-06
 ErrMax= 2.57D-06 EMaxC= 1.00D+00 BMatC= 1.13D-10 BMatP= 1.13D-10
 IDIUse=1 WtCom= 1.00D+00 WtEn= 0.00D+00
 Coeff-Com:  0.100D+01
 Coeff:      0.100D+01
 Gap=     0.331 Goal=   None    Shift=    0.000

MKL ERROR: Parameter 10 was incorrect on entry to DSYEVD
 DSYEVD returned Info=         -10 IAlg= 4 N=     2 NDim=    24 NE2=     5457918 trying DSYEV.
 RMSDP=1.51D-06 MaxDP=1.31D-05 DE=-2.98D-06 OVMax= 7.32D-06

 Cycle   8  Pass 1  IDiag  1:
 E= -76.4164092810637     Delta-E=       -0.000000000131 Rises=F Damp=F
 DIIS: error= 8.44D-07 at cycle   2 NSaved=   2.
 NSaved= 2 IEnMin= 2 EnMin= -76.4164092810637     IErMin= 2 ErrMin= 8.44D-07
 ErrMax= 8.44D-07 EMaxC= 1.00D+00 BMatC= 1.15D-11 BMatP= 1.13D-10
 IDIUse=1 WtCom= 1.00D+00 WtEn= 0.00D+00
 Coeff-Com:  0.959D-01 0.904D+00
 Coeff:      0.959D-01 0.904D+00
 Gap=     0.331 Goal=   None    Shift=    0.000

MKL ERROR: Parameter 10 was incorrect on entry to DSYEVD
 DSYEVD returned Info=         -10 IAlg= 4 N=     2 NDim=    24 NE2=     5457918 trying DSYEV.
 RMSDP=1.70D-07 MaxDP=1.55D-06 DE=-1.31D-10 OVMax= 2.13D-06

 Cycle   9  Pass 1  IDiag  1:
 E= -76.4164092810607     Delta-E=        0.000000000003 Rises=F Damp=F
 DIIS: error= 9.55D-07 at cycle   3 NSaved=   3.
 NSaved= 3 IEnMin= 2 EnMin= -76.4164092810637     IErMin= 2 ErrMin= 8.44D-07
 ErrMax= 9.55D-07 EMaxC= 1.00D+00 BMatC= 1.62D-11 BMatP= 1.15D-11
 IDIUse=1 WtCom= 1.00D+00 WtEn= 0.00D+00
 Coeff-Com: -0.262D-01 0.553D+00 0.473D+00
 Coeff:     -0.262D-01 0.553D+00 0.473D+00
[...]
  XXX=              0.0000  YYY=              0.0000  ZZZ=             -1.0076  XYY=              0.0000
  XXY=              0.0000  XXZ=             -0.2448  XZZ=              0.0000  YZZ=              0.0000
  YYZ=             -1.1183  XYZ=              0.0000
 Hexadecapole moment (field-independent basis, Debye-Ang**3):
 XXXX=             -4.8374 YYYY=             -6.1510 ZZZZ=             -6.0421 XXXY=              0.0000
 XXXZ=              0.0000 YYYX=              0.0000 YYYZ=              0.0000 ZZZX=              0.0000
 ZZZY=              0.0000 XXYY=             -2.0926 XXZZ=             -1.8715 YYZZ=             -1.6791
 XXYZ=              0.0000 YYXZ=              0.0000 ZZXY=              0.0000
 N-N= 9.090417169934D+00 E-N=-1.990585550712D+02  KE= 7.602729809407D+01
 Symmetry A1   KE= 6.789744089026D+01
 Symmetry A2   KE= 9.979176829791D-36
 Symmetry B1   KE= 4.607486156148D+00
 Symmetry B2   KE= 3.522371047656D+00
  Exact polarizability:   3.203   0.000   7.406   0.000   0.000   5.591
 Approx polarizability:   3.395   0.000   9.092   0.000   0.000   7.053
 No NMR shielding tensors so no spin-rotation constants.
 Leave Link  601 at Sat Mar 22 13:20:15 2014, MaxMem=  131072000 cpu:       1.0
 (Enter /home/mdsoft/gaussian/g09/l701.exe)
 Compute integral second derivatives.
 ... and contract with generalized density number  0.
 Leave Link  701 at Sat Mar 22 13:20:16 2014, MaxMem=  131072000 cpu:       1.2
 (Enter /home/mdsoft/gaussian/g09/l702.exe)
 L702 exits ... SP integral derivatives will be done elsewhere.
 Leave Link  702 at Sat Mar 22 13:20:16 2014, MaxMem=  131072000 cpu:       0.1
 (Enter /home/mdsoft/gaussian/g09/l703.exe)
 Compute integral second derivatives, UseDBF=F ICtDFT=           0.
 Integral derivatives from FoFDir, PRISM(SPDF).
 Calling FoFJK, ICntrl=    100127 FMM=F ISym2X=1 I1Cent= 0 IOpClX= 0 NMat=1 NMatS=1 NMatT=0.
 FoFCou: FMM=F IPFlag=           0 FMFlag=      100000 FMFlg1=         800
         NFxFlg=           0 DoJE=F BraDBF=F KetDBF=F FulRan=T
         Omega=  0.000000  0.000000  1.000000  0.000000  0.000000 ICntrl=  100127 IOpCl=  0
         NMat0=    1 NMatS0=    1 NMatT0=    0 NMatD0=    1 NMtDS0=    0 NMtDT0=    0
         I1Cent=           0 NGrid=           0.
 Petite list used in FoFCou.
 Leave Link  703 at Sat Mar 22 13:20:16 2014, MaxMem=  131072000 cpu:       1.9
 (Enter /home/mdsoft/gaussian/g09/l716.exe)
 Dipole        =-2.51321579D-17 1.04950770D-16-7.62525094D-01
 Polarizability= 3.20282668D+00 1.73404433D-12 7.40566339D+00
                -6.22465543D-12 6.33118002D-11 5.59116113D+00
 HyperPolar    = 3.74056461D-10-5.57888123D-10 3.77872251D-10
                -2.82724574D-09-3.56396652D+00-3.46167899D-10
                -1.97201193D+01-1.98847559D-10-3.20173404D-10
                -1.40813697D+01
 Full mass-weighted force constant matrix:
 Low frequencies ---  -43.5011  -33.1579  -15.2957   -0.0021   -0.0009    0.0005
 Low frequencies --- 1658.9439 3751.6844 3853.0233
 Harmonic frequencies (cm**-1), IR intensities (KM/Mole), Raman scattering
 activities (A**4/AMU), depolarization ratios for plane and unpolarized
 incident light, reduced masses (AMU), force constants (mDyne/A),
 and normal coordinates:
                     1                      2                      3
                    A1                     A1                     B2
 Frequencies --  1658.9439              3751.6844              3853.0233
 Red. masses --     1.0820                 1.0458                 1.0801
 Frc consts  --     1.7544                 8.6728                 9.4473
 IR Inten    --    55.7421                 2.9227                19.9885
 Raman Activ --     6.0860                75.6910                37.4359
 Depolar (P) --     0.5249                 0.1667                 0.7500
 Depolar (U) --     0.6884                 0.2857                 0.8571
  Atom  AN      X      Y      Z        X      Y      Z        X      Y      Z
     1   8     0.00   0.00   0.07     0.00   0.00   0.05     0.00   0.07   0.00
     2   1     0.00  -0.43  -0.56     0.00   0.58  -0.40     0.00  -0.55   0.44
     3   1     0.00   0.43  -0.56     0.00  -0.58  -0.40     0.00  -0.55  -0.44

 -------------------
 - Thermochemistry -
 -------------------
 Temperature   298.150 Kelvin.  Pressure   1.00000 Atm.
 Atom     1 has atomic number  8 and mass  15.99491
 Atom     2 has atomic number  1 and mass   1.00783
 Atom     3 has atomic number  1 and mass   1.00783
 Molecular mass:    18.01056 amu.
 Principal axes and moments of inertia in atomic units:
                           1         2         3
     Eigenvalues --     2.33869   4.12059   6.45928
           X            0.00000   0.00000   1.00000
           Y            1.00000   0.00000   0.00000
           Z            0.00000   1.00000   0.00000
 This molecule is an asymmetric top.
 Rotational symmetry number  2.
 Rotational temperatures (Kelvin)     37.03517    21.01974    13.40920
 Rotational constants (GHZ):         771.68875   437.98093   279.40268
 Zero-point vibrational energy      55408.9 (Joules/Mol)
                                   13.24305 (Kcal/Mol)
 Vibrational temperatures:   2386.85  5397.83  5543.63
          (Kelvin)
 
 Zero-point correction=                           0.021104 (Hartree/Particle)
 Thermal correction to Energy=                    0.023939
 Thermal correction to Enthalpy=                  0.024883
 Thermal correction to Gibbs Free Energy=         0.003434
 Sum of electronic and zero-point Energies=            -76.399522
 Sum of electronic and thermal Energies=               -76.396687
 Sum of electronic and thermal Enthalpies=             -76.395743
 Sum of electronic and thermal Free Energies=          -76.417193
 
                     E (Thermal)             CV                S
                      KCal/Mol        Cal/Mol-Kelvin    Cal/Mol-Kelvin
 Total                   15.022              6.004             45.144
 Electronic               0.000              0.000              0.000
 Translational            0.889              2.981             34.608
 Rotational               0.889              2.981             10.530
 Vibrational             13.245              0.043              0.006
                       Q            Log10(Q)             Ln(Q)
 Total Bot       0.263361D-01         -1.579449         -3.636816
 Total V=0       0.134204D+09          8.127766         18.714873
 Vib (Bot)       0.196304D-09         -9.707070        -22.351355
 Vib (V=0)       0.100033D+01          0.000145          0.000334
 Electronic      0.100000D+01          0.000000          0.000000
 Translational   0.300432D+07          6.477746         14.915562
 Rotational      0.446555D+02          1.649875          3.798977
 
                                                     H2O MP2(Full)/cc-pVTZ (Freq)
                                                             IR Spectrum
 
     3   3                                                                    1                                                      
     8   7                                                                    6                                                      
     5   5                                                                    5                                                      
     3   2                                                                    9                                                      
 
     X   X                                                                    X                                                      
     X                                                                        X                                                      
     X                                                                        X                                                      
     X                                                                        X                                                      
     X                                                                        X                                                      
     X                                                                        X                                                      
     X                                                                        X                                                      
                                                                              X                                                      
                                                                              X                                                      
                                                                              X                                                      
                                                                              X                                                      
                                                                              X                                                      
                                                                              X                                                      
                                                                              X                                                      
                                                                              X                                                      
                                                                              X                                                      
                                                                              X                                                      
                                                                              X                                                      
                                                                              X                                                      
                                                                              X                                                      
 
 
                                                     H2O MP2(Full)/cc-pVTZ (Freq)
                                                            Raman Spectrum
 
     3   3                                                                    1                                                      
     8   7                                                                    6                                                      
     5   5                                                                    5                                                      
     3   2                                                                    9                                                      
 
     X   X                                                                    X                                                      
     X   X                                                                    X                                                      
     X   X                                                                                                                           
     X   X                                                                                                                           
     X   X                                                                                                                           
     X   X                                                                                                                           
     X   X                                                                                                                           
     X   X                                                                                                                           
     X   X                                                                                                                           
     X   X                                                                                                                           
         X                                                                                                                           
         X                                                                                                                           
         X                                                                                                                           
         X                                                                                                                           
         X                                                                                                                           
         X                                                                                                                           
         X                                                                                                                           
         X                                                                                                                           
         X                                                                                                                           
         X                                                                                                                           
 
 ***** Axes restored to original set *****
 -------------------------------------------------------------------
 Center     Atomic                   Forces (Hartrees/Bohr)
 Number     Number              X              Y              Z
 -------------------------------------------------------------------
      1        8           0.000000000    0.000000000   -0.000034238
      2        1          -0.000011117    0.000000000    0.000017119
      3        1           0.000011117    0.000000000    0.000017119
 -------------------------------------------------------------------
 Cartesian Forces:  Max     0.000034238 RMS     0.000014928
 Force constants in Cartesian coordinates: 
                1             2             3             4             5 
      1  0.641535D+00
      2  0.000000D+00 -0.744793D-04
      3  0.000000D+00  0.000000D+00  0.452174D+00
      4 -0.320767D+00  0.000000D+00 -0.193653D+00  0.353987D+00
      5  0.000000D+00  0.372396D-04  0.000000D+00  0.000000D+00 -0.547066D-04
      6 -0.256450D+00  0.000000D+00 -0.226087D+00  0.225051D+00  0.000000D+00
      7 -0.320767D+00  0.000000D+00  0.193653D+00 -0.332197D-01  0.000000D+00
      8  0.000000D+00  0.372396D-04  0.000000D+00  0.000000D+00  0.174669D-04
      9  0.256450D+00  0.000000D+00 -0.226087D+00 -0.313982D-01  0.000000D+00
                6             7             8             9 
      6  0.215551D+00
      7  0.313982D-01  0.353987D+00
      8  0.000000D+00  0.000000D+00 -0.547066D-04
      9  0.105363D-01 -0.225051D+00  0.000000D+00  0.215551D+00
 Force constants in internal coordinates: 
                1             2             3 
      1  0.519527D+00
      2 -0.624094D-02  0.519527D+00
      3  0.328856D-01  0.328856D-01  0.167550D+00
 Leave Link  716 at Sat Mar 22 13:20:16 2014, MaxMem=  131072000 cpu:       0.1
 (Enter /home/mdsoft/gaussian/g09/l103.exe)

 GradGradGradGradGradGradGradGradGradGradGradGradGradGradGradGradGradGrad
 Berny optimization.
 Red2BG is reusing G-inverse.
 Internal  Forces:  Max     0.000037183 RMS     0.000021530
 Search for a local minimum.
 Step number   1 out of a maximum of    2
 All quantities printed in internal units (Hartrees-Bohrs-Radians)
 Second derivative matrix not updated -- analytic derivatives used.
 The second derivative matrix:
                          R1        R2        A1
           R1           0.51953
           R2          -0.00624   0.51953
           A1           0.03289   0.03289   0.16755
 ITU=  0
     Eigenvalues ---    0.16140   0.51943   0.52577
 Angle between quadratic step and forces=   2.18 degrees.
 Linear search not attempted -- first point.
 Iteration  1 RMS(Cart)=  0.00012605 RMS(Int)=  0.00000001
 Iteration  2 RMS(Cart)=  0.00000001 RMS(Int)=  0.00000000
 ClnCor:  largest displacement from symmetrization is 1.50D-14 for atom     3.
 Variable       Old X    -DE/DX   Delta X   Delta X   Delta X     New X
                                 (Linear)    (Quad)   (Total)
    R1        1.83051   0.00000   0.00000  -0.00002  -0.00002   1.83050
    R2        1.83051   0.00000   0.00000  -0.00002  -0.00002   1.83050
    A1        1.79281   0.00004   0.00000   0.00023   0.00023   1.79304
         Item               Value     Threshold  Converged?
 Maximum Force            0.000037     0.000450     YES
 RMS     Force            0.000022     0.000300     YES
 Maximum Displacement     0.000117     0.001800     YES
 RMS     Displacement     0.000126     0.001200     YES
 Predicted change in Energy=-4.298928D-09
 Optimization completed.
    -- Stationary point found.
                           ----------------------------
                           !   Optimized Parameters   !
                           ! (Angstroms and Degrees)  !
 --------------------------                            --------------------------
 ! Name  Definition              Value          Derivative Info.                !
 --------------------------------------------------------------------------------
 ! R1    R(1,2)                  0.9687         -DE/DX =    0.0                 !
 ! R2    R(1,3)                  0.9687         -DE/DX =    0.0                 !
 ! A1    A(2,1,3)              102.7204         -DE/DX =    0.0                 !
 --------------------------------------------------------------------------------
 GradGradGradGradGradGradGradGradGradGradGradGradGradGradGradGradGradGrad

 Leave Link  103 at Sat Mar 22 13:20:16 2014, MaxMem=  131072000 cpu:       0.0
 (Enter /home/mdsoft/gaussian/g09/l9999.exe)
 1\1\GINC-DIVA01\Freq\RB3LYP\CC-pVDZ\H2O1\YAGI\22-Mar-2014\0\\#P Geom=A
 llCheck Guess=TCheck SCRF=Check GenChk RB3LYP/CC-pVDZ Freq\\H2O MP2(Fu
 ll)/cc-pVTZ (Freq)\\0,1\O,0.,0.,0.222684069\H,-0.7566123528,0.,-0.3821
 728408\H,0.7566123528,0.,-0.3821728408\\Version=EM64L-G09RevC.01\State
 =1-A1\HF=-76.4206266\RMSD=6.280e-10\RMSF=1.493e-05\ZeroPoint=0.0211042
 \Thermal=0.0239392\Dipole=0.,0.,-0.7625251\DipoleDeriv=-0.3945436,0.,0
 .,0.,-0.6671109,0.,0.,0.,-0.3017573,0.1972718,0.,-0.0684879,0.,0.33355
 54,0.,-0.1089366,0.,0.1508786,0.1972718,0.,0.0684879,0.,0.3335554,0.,0
 .1089366,0.,0.1508786\Polar=7.4056634,0.,3.2028267,0.,0.,5.5911611\Pol
 arDeriv=0.,0.,0.,4.5204485,0.,0.,0.,0.,0.,0.,2.0898317,0.,5.1680727,0.
 ,-0.0700444,0.,0.,5.7261629,-4.7422047,0.,0.108486,-2.2602243,0.,-1.14
 62229,0.,-1.4696531,0.,0.,-1.0449158,0.,-2.5840363,0.,0.0350222,-2.441
 3156,0.,-2.8630815,4.7422047,0.,-0.108486,-2.2602243,0.,1.1462229,0.,1
 .4696531,0.,0.,-1.0449158,0.,-2.5840363,0.,0.0350222,2.4413156,0.,-2.8
 630815\HyperPolar=0.,0.,0.,0.,-19.7201193,0.,-3.5639665,0.,0.,-14.0813
 697\PG=C02V [C2(O1),SGV(H2)]\NImag=0\\0.64153470,0.,-0.00007448,0.,0.,
 0.45217355,-0.32076735,0.,-0.19365322,0.35398703,0.,0.00003724,0.,0.,-
 0.00005471,-0.25644953,0.,-0.22608678,0.22505138,0.,0.21555051,-0.3207
 6735,0.,0.19365322,-0.03321968,0.,0.03139815,0.35398703,0.,0.00003724,
 0.,0.,0.00001747,0.,0.,-0.00005471,0.25644953,0.,-0.22608678,-0.031398
 15,0.,0.01053627,-0.22505138,0.,0.21555051\\0.,0.,0.00003424,0.0000111
 2,0.,-0.00001712,-0.00001112,0.,-0.00001712\\\@


 BE CAREFUL NOT TO BECOME TOO GOOD OF A SONGBIRD OR 
 THEY'LL THROW YOU INTO A CAGE.

                                    -- SNOOPY TO WOODSTOCK
 Job cpu time:  0 days  0 hours  0 minutes 15.8 seconds.
 File lengths (MBytes):  RWF=      5 Int=      0 D2E=      0 Chk=      2 Scr=      1
 Normal termination of Gaussian 09 at Sat Mar 22 13:20:16 2014.

real	0m17.536s
user	1m13.756s
sys	0m4.001s
