CO2 B3LYP/ccpVDZ                                                        
Freq      RB3LYP                                                      CC-pVDZ             
Number of atoms                            I                3
Charge                                     I                0
Multiplicity                               I                1
Number of electrons                        I               22
Number of alpha electrons                  I               11
Number of beta electrons                   I               11
Number of basis functions                  I               42
Number of independant functions            I               42
Number of point charges in /Mol/           I                0
Number of translation vectors              I                0
Info1-9                                    I   N=           9
          12          12        1002           0           0         100
           6          18        -501
Num ILSW                                   I              100
ILSW                                       I   N=         100
           0           0           0           0           2           0
           0           0           0           0         402      200000
           0           0          -1           0           0           0
           0      800000           0           0           1           0
           1           0           0           0     1000000           0
           0           0      100000           0          -1           0
           0           0           0           0           0           0
           0           0           0           1           0           0
           0           0           1      720000      810000           0
           0           0           0           0           0           0
           0           0           0           0           0           0
           0           0           0           0           0           0
           0           0           0           0           0           0
           0           0           0           0           0           0
           0           0           0           0           0           0
           0           0           0           0           0           0
           0           0           0           0
Number of contracted shells                I               18
Highest angular momentum                   I                2
Largest degree of contraction              I                7
Number of primitive shells                 I               60
Pure/Cartesian d shells                    I                0
Pure/Cartesian f shells                    I                0
Virial Ratio                               R      2.005784778715247E+00
SCF Energy                                 R     -1.885984686358615E+02
Total Energy                               R     -1.885984686358615E+02
RMS Force                                  R      2.077990869256804E-06
RMS Density                                R      1.406534851800093E-09
Atomic numbers                             I   N=           3
           8           6           8
Nuclear charges                            R   N=           3
  8.00000000E+00  6.00000000E+00  8.00000000E+00
Current cartesian coordinates              R   N=           9
  0.00000000E+00  0.00000000E+00  2.20607458E+00  0.00000000E+00  0.00000000E+00
  0.00000000E+00  2.70166217E-16  0.00000000E+00 -2.20607458E+00
Int Atom Types                             I   N=           3
           0           0           0
Force Field                                I                0
MM charges                                 R   N=           3
  0.00000000E+00  0.00000000E+00  0.00000000E+00
Integer atomic weights                     I   N=           3
          16          12          16
Real atomic weights                        R   N=           3
  1.59949146E+01  1.20000000E+01  1.59949146E+01
Atom residue info                          I   N=           3
           0           0           0
Atom fragment info                         I   N=           3
           0           0           0
Atom residue num                           I   N=           3
           0           0           0
Nuclear spins                              I   N=           3
           0           0           0
Nuclear ZEff                               R   N=           3
 -5.60000000E+00 -3.60000000E+00 -5.60000000E+00
Nuclear QMom                               R   N=           3
  0.00000000E+00  0.00000000E+00  0.00000000E+00
Nuclear GFac                               R   N=           3
  0.00000000E+00  0.00000000E+00  0.00000000E+00
MicOpt                                     I   N=           3
          -1          -1          -1
Constraint Structure                       R   N=           9
  0.00000000E+00  0.00000000E+00  2.20607458E+00  0.00000000E+00  0.00000000E+00
  0.00000000E+00  2.70166217E-16  0.00000000E+00 -2.20607458E+00
ONIOM Charges                              I   N=          16
           0           0           0           0           0           0
           0           0           0           0           0           0
           0           0           0           0
ONIOM Multiplicities                       I   N=          16
           1           0           0           0           0           0
           0           0           0           0           0           0
           0           0           0           0
Atom Layers                                I   N=           3
           0           0           0
Atom Modifiers                             I   N=           3
           0           0           0
Int Atom Modified Types                    I   N=           3
           0           0           0
Link Atoms                                 I   N=           3
           0           0           0
Atom Modified MM Charges                   R   N=           3
  0.00000000E+00  0.00000000E+00  0.00000000E+00
Link Distances                             R   N=          12
  0.00000000E+00  0.00000000E+00  0.00000000E+00  0.00000000E+00  0.00000000E+00
  0.00000000E+00  0.00000000E+00  0.00000000E+00  0.00000000E+00  0.00000000E+00
  0.00000000E+00  0.00000000E+00
MxBond                                     I                2
NBond                                      I   N=           3
           1           2           1
IBond                                      I   N=           6
           2           0           1           3           2           0
RBond                                      R   N=           6
  2.00000000E+00  0.00000000E+00  2.00000000E+00  2.00000000E+00  2.00000000E+00
  0.00000000E+00
Shell types                                I   N=          18
           0           0           0           1           1          -2
           0           0           0           1           1          -2
           0           0           0           1           1          -2
Number of primitives per shell             I   N=          18
           7           7           1           3           1           1
           7           7           1           3           1           1
           7           7           1           3           1           1
Shell to atom map                          I   N=          18
           1           1           1           1           1           1
           2           2           2           2           2           2
           3           3           3           3           3           3
Primitive exponents                        R   N=          60
  1.17200000E+04  1.75900000E+03  4.00800000E+02  1.13700000E+02  3.70300000E+01
  1.32700000E+01  5.02500000E+00  1.17200000E+04  1.75900000E+03  1.13700000E+02
  3.70300000E+01  1.32700000E+01  5.02500000E+00  1.01300000E+00  3.02300000E-01
  1.77000000E+01  3.85400000E+00  1.04600000E+00  2.75300000E-01  1.18500000E+00
  6.66500000E+03  1.00000000E+03  2.28000000E+02  6.47100000E+01  2.10600000E+01
  7.49500000E+00  2.79700000E+00  6.66500000E+03  1.00000000E+03  6.47100000E+01
  2.10600000E+01  7.49500000E+00  2.79700000E+00  5.21500000E-01  1.59600000E-01
  9.43900000E+00  2.00200000E+00  5.45600000E-01  1.51700000E-01  5.50000000E-01
  1.17200000E+04  1.75900000E+03  4.00800000E+02  1.13700000E+02  3.70300000E+01
  1.32700000E+01  5.02500000E+00  1.17200000E+04  1.75900000E+03  1.13700000E+02
  3.70300000E+01  1.32700000E+01  5.02500000E+00  1.01300000E+00  3.02300000E-01
  1.77000000E+01  3.85400000E+00  1.04600000E+00  2.75300000E-01  1.18500000E+00
Contraction coefficients                   R   N=          60
  7.11864434E-04  5.48520199E-03  2.79099296E-02  1.05133208E-01  2.84002490E-01
  4.51673946E-01  2.73208126E-01 -3.06123094E-07 -6.17623398E-05 -4.15727069E-03
 -1.41000884E-02 -1.26138481E-01 -1.09614598E-01  1.09868833E+00  1.00000000E+00
  6.26791663E-02  3.33536566E-01  7.41239642E-01  1.00000000E+00  1.00000000E+00
  6.93516317E-04  5.34150243E-03  2.71366714E-02  1.01992385E-01  2.75508636E-01
  4.51086433E-01  2.87565745E-01  6.28313219E-07 -5.48480000E-05 -3.63137064E-03
 -1.17983699E-02 -1.10909885E-01 -1.34742247E-01  1.10175849E+00  1.00000000E+00
  5.69792516E-02  3.13207212E-01  7.60376742E-01  1.00000000E+00  1.00000000E+00
  7.11864434E-04  5.48520199E-03  2.79099296E-02  1.05133208E-01  2.84002490E-01
  4.51673946E-01  2.73208126E-01 -3.06123094E-07 -6.17623398E-05 -4.15727069E-03
 -1.41000884E-02 -1.26138481E-01 -1.09614598E-01  1.09868833E+00  1.00000000E+00
  6.26791663E-02  3.33536566E-01  7.41239642E-01  1.00000000E+00  1.00000000E+00
Coordinates of each shell                  R   N=          54
  0.00000000E+00  0.00000000E+00  2.20607458E+00  0.00000000E+00  0.00000000E+00
  2.20607458E+00  0.00000000E+00  0.00000000E+00  2.20607458E+00  0.00000000E+00
  0.00000000E+00  2.20607458E+00  0.00000000E+00  0.00000000E+00  2.20607458E+00
  0.00000000E+00  0.00000000E+00  2.20607458E+00  0.00000000E+00  0.00000000E+00
  0.00000000E+00  0.00000000E+00  0.00000000E+00  0.00000000E+00  0.00000000E+00
  0.00000000E+00  0.00000000E+00  0.00000000E+00  0.00000000E+00  0.00000000E+00
  0.00000000E+00  0.00000000E+00  0.00000000E+00  0.00000000E+00  0.00000000E+00
  0.00000000E+00  2.70166217E-16  0.00000000E+00 -2.20607458E+00  2.70166217E-16
  0.00000000E+00 -2.20607458E+00  2.70166217E-16  0.00000000E+00 -2.20607458E+00
  2.70166217E-16  0.00000000E+00 -2.20607458E+00  2.70166217E-16  0.00000000E+00
 -2.20607458E+00  2.70166217E-16  0.00000000E+00 -2.20607458E+00
Alpha Orbital Energies                     R   N=          42
 -1.92237207E+01 -1.92237164E+01 -1.03805055E+01 -1.15980164E+00 -1.11924082E+00
 -5.61315606E-01 -5.16627650E-01 -5.12087998E-01 -5.12087998E-01 -3.67555201E-01
 -3.67555201E-01  3.30333931E-02  3.30333931E-02  8.15024783E-02  3.42695133E-01
  4.14429641E-01  4.14429641E-01  5.40291463E-01  7.43936533E-01  8.30453218E-01
  8.67754555E-01  8.67754555E-01  1.03933571E+00  1.03934038E+00  1.07646492E+00
  1.08726898E+00  1.08726898E+00  1.29443139E+00  1.29443139E+00  1.58884986E+00
  2.03185520E+00  2.52071478E+00  2.52071579E+00  2.64770421E+00  2.64770487E+00
  2.70277280E+00  2.73641894E+00  2.73641894E+00  3.36660226E+00  3.47059691E+00
  3.47059691E+00  3.50035137E+00
Alpha MO coefficients                      R   N=        1764
  7.04895721E-01  1.67505770E-02 -1.21762519E-02  0.00000000E+00  0.00000000E+00
 -1.25693992E-03  0.00000000E+00  0.00000000E+00  2.18555151E-03  1.17139446E-04
  0.00000000E+00  0.00000000E+00  6.21072896E-17  0.00000000E+00  0.00000000E+00
  0.00000000E+00  0.00000000E+00  0.00000000E+00  0.00000000E+00  1.25629408E-05
  0.00000000E+00  0.00000000E+00  8.14581015E-03  0.00000000E+00  0.00000000E+00
  0.00000000E+00  0.00000000E+00  0.00000000E+00 -7.04895721E-01 -1.67505770E-02
  1.21762519E-02  0.00000000E+00  0.00000000E+00 -1.25693992E-03  0.00000000E+00
  0.00000000E+00  2.18555151E-03 -1.17139446E-04  0.00000000E+00  0.00000000E+00
 -6.21072896E-17  0.00000000E+00  7.04865499E-01  1.65839169E-02 -6.78392892E-03
  0.00000000E+00  0.00000000E+00 -2.15213261E-03  0.00000000E+00  0.00000000E+00
  1.93106739E-03  2.89761325E-04  0.00000000E+00  0.00000000E+00 -2.45893709E-17
  0.00000000E+00  4.38169145E-04  9.04679820E-05  3.73651749E-03  0.00000000E+00
  0.00000000E+00  0.00000000E+00  0.00000000E+00  0.00000000E+00  0.00000000E+00
 -2.88563573E-03  0.00000000E+00  0.00000000E+00 -4.75559087E-18  0.00000000E+00
  7.04865499E-01  1.65839169E-02 -6.78392892E-03  0.00000000E+00  0.00000000E+00
  2.15213261E-03  0.00000000E+00  0.00000000E+00 -1.93106739E-03  2.89761325E-04
  0.00000000E+00  0.00000000E+00 -2.45893709E-17  0.00000000E+00 -2.49987802E-04
 -4.33392131E-04 -8.14386020E-03  0.00000000E+00  0.00000000E+00  1.89967494E-03
  0.00000000E+00  0.00000000E+00  5.33137927E-03 -1.27467394E-03  0.00000000E+00
  0.00000000E+00  4.58319506E-17  0.00000000E+00  9.96492736E-01  2.96110272E-02
  3.36151770E-03  0.00000000E+00  0.00000000E+00  0.00000000E+00  0.00000000E+00
  0.00000000E+00  0.00000000E+00  6.56109041E-03  0.00000000E+00  0.00000000E+00
 -6.68193432E-17  0.00000000E+00 -2.49987802E-04 -4.33392131E-04 -8.14386020E-03
  0.00000000E+00  0.00000000E+00 -1.89967494E-03  0.00000000E+00  0.00000000E+00
 -5.33137927E-03 -1.27467394E-03  0.00000000E+00  0.00000000E+00  4.58319506E-17
  0.00000000E+00 -1.29582155E-01  2.72589646E-01  2.32860452E-01  0.00000000E+00
  0.00000000E+00 -1.22830712E-01  0.00000000E+00  0.00000000E+00 -3.09481311E-02
  1.31866474E-02  0.00000000E+00  0.00000000E+00 -1.45196569E-16  0.00000000E+00
 -1.45588135E-01  2.97218614E-01  1.07913582E-01  0.00000000E+00  0.00000000E+00
  0.00000000E+00  0.00000000E+00  0.00000000E+00  0.00000000E+00  5.18942550E-02
  0.00000000E+00  0.00000000E+00  6.70196938E-16  0.00000000E+00 -1.29582155E-01
  2.72589646E-01  2.32860452E-01  0.00000000E+00  0.00000000E+00  1.22830712E-01
  0.00000000E+00  0.00000000E+00  3.09481311E-02  1.31866474E-02  0.00000000E+00
  0.00000000E+00 -1.45196569E-16  0.00000000E+00 -1.39956364E-01  3.09715869E-01
  2.45082588E-01  0.00000000E+00  0.00000000E+00 -1.29163275E-01  0.00000000E+00
  0.00000000E+00 -1.02141925E-02  1.12885745E-02  0.00000000E+00  0.00000000E+00
 -3.65835217E-16  0.00000000E+00  0.00000000E+00  0.00000000E+00  0.00000000E+00
  0.00000000E+00  0.00000000E+00  3.39890625E-01  0.00000000E+00  0.00000000E+00
  2.31667538E-02  0.00000000E+00  0.00000000E+00  0.00000000E+00  0.00000000E+00
  0.00000000E+00  1.39956364E-01 -3.09715869E-01 -2.45082588E-01  0.00000000E+00
  0.00000000E+00 -1.29163275E-01  0.00000000E+00  0.00000000E+00 -1.02141925E-02
 -1.12885745E-02  0.00000000E+00  0.00000000E+00  3.65835217E-16  0.00000000E+00
 -8.90446588E-02  1.99676298E-01  2.99074527E-01  0.00000000E+00  0.00000000E+00
  3.25755828E-01  0.00000000E+00  0.00000000E+00  1.90341037E-01 -1.85097526E-02
  0.00000000E+00  0.00000000E+00 -7.09024678E-16  0.00000000E+00  1.20244865E-01
 -3.16035616E-01 -9.31291423E-02  0.00000000E+00  0.00000000E+00  0.00000000E+00
  0.00000000E+00  0.00000000E+00  0.00000000E+00  9.09603946E-03  0.00000000E+00
  0.00000000E+00 -1.53027729E-16  0.00000000E+00 -8.90446588E-02  1.99676298E-01
  2.99074527E-01  0.00000000E+00  0.00000000E+00 -3.25755828E-01  0.00000000E+00
  0.00000000E+00 -1.90341037E-01 -1.85097526E-02  0.00000000E+00  0.00000000E+00
 -7.09024678E-16  0.00000000E+00 -6.63710224E-02  1.51995744E-01  2.27516420E-01
  0.00000000E+00  0.00000000E+00  3.88437728E-01  0.00000000E+00  0.00000000E+00
  1.96509149E-01 -1.80587575E-02  0.00000000E+00  0.00000000E+00 -6.32511592E-16
  0.00000000E+00  0.00000000E+00  0.00000000E+00  0.00000000E+00  0.00000000E+00
  0.00000000E+00 -3.59686590E-01  0.00000000E+00  0.00000000E+00  7.91530533E-02
  0.00000000E+00  0.00000000E+00  0.00000000E+00  0.00000000E+00  0.00000000E+00
  6.63710224E-02 -1.51995744E-01 -2.27516420E-01  0.00000000E+00  0.00000000E+00
  3.88437728E-01  0.00000000E+00  0.00000000E+00  1.96509149E-01  1.80587575E-02
  0.00000000E+00  0.00000000E+00  6.32511592E-16  0.00000000E+00  0.00000000E+00
  0.00000000E+00  0.00000000E+00  0.00000000E+00  3.48124335E-01  0.00000000E+00
  0.00000000E+00  1.89690472E-01  0.00000000E+00  0.00000000E+00  0.00000000E+00
 -2.42186961E-02  0.00000000E+00  0.00000000E+00  0.00000000E+00  0.00000000E+00
  0.00000000E+00  0.00000000E+00  4.15047891E-01  0.00000000E+00  0.00000000E+00
  1.67437101E-01  0.00000000E+00  0.00000000E+00  0.00000000E+00  0.00000000E+00
  0.00000000E+00  0.00000000E+00  0.00000000E+00  0.00000000E+00  0.00000000E+00
  0.00000000E+00  3.48124335E-01  0.00000000E+00  0.00000000E+00  1.89690472E-01
  0.00000000E+00  0.00000000E+00  0.00000000E+00  2.42186961E-02  0.00000000E+00
  0.00000000E+00  0.00000000E+00  0.00000000E+00  0.00000000E+00  3.48124335E-01
  0.00000000E+00  0.00000000E+00  1.89690472E-01  0.00000000E+00  0.00000000E+00
  0.00000000E+00 -2.42186961E-02  0.00000000E+00  0.00000000E+00  0.00000000E+00
  0.00000000E+00  0.00000000E+00  0.00000000E+00  4.15047891E-01  0.00000000E+00
  0.00000000E+00  1.67437101E-01  0.00000000E+00  0.00000000E+00  0.00000000E+00
  0.00000000E+00  0.00000000E+00  0.00000000E+00  0.00000000E+00  0.00000000E+00
  0.00000000E+00  0.00000000E+00  3.48124335E-01  0.00000000E+00  0.00000000E+00
  1.89690472E-01  0.00000000E+00  0.00000000E+00  0.00000000E+00  2.42186961E-02
  0.00000000E+00  0.00000000E+00  0.00000000E+00  0.00000000E+00  0.00000000E+00
  0.00000000E+00  0.00000000E+00  4.66207599E-01  0.00000000E+00  0.00000000E+00
  3.15495138E-01  0.00000000E+00  0.00000000E+00  0.00000000E+00 -1.35414845E-02
  0.00000000E+00  0.00000000E+00  0.00000000E+00  0.00000000E+00  0.00000000E+00
  0.00000000E+00  0.00000000E+00  0.00000000E+00  0.00000000E+00  0.00000000E+00
  0.00000000E+00  0.00000000E+00  0.00000000E+00  8.06985244E-02  0.00000000E+00
  0.00000000E+00  0.00000000E+00  0.00000000E+00  0.00000000E+00  0.00000000E+00
 -4.66207599E-01  0.00000000E+00  0.00000000E+00 -3.15495138E-01  0.00000000E+00
  0.00000000E+00  0.00000000E+00 -1.35414845E-02  0.00000000E+00  0.00000000E+00
  0.00000000E+00  0.00000000E+00  0.00000000E+00  4.66207599E-01  0.00000000E+00
  0.00000000E+00  3.15495138E-01  0.00000000E+00  0.00000000E+00  0.00000000E+00
 -1.35414845E-02  0.00000000E+00  0.00000000E+00  0.00000000E+00  0.00000000E+00
  0.00000000E+00  0.00000000E+00  0.00000000E+00  0.00000000E+00  0.00000000E+00
  0.00000000E+00  0.00000000E+00  0.00000000E+00  0.00000000E+00  8.06985244E-02
  0.00000000E+00  0.00000000E+00  0.00000000E+00  0.00000000E+00  0.00000000E+00
  0.00000000E+00 -4.66207599E-01  0.00000000E+00  0.00000000E+00 -3.15495138E-01
  0.00000000E+00  0.00000000E+00  0.00000000E+00 -1.35414845E-02  0.00000000E+00
  0.00000000E+00  0.00000000E+00  0.00000000E+00  0.00000000E+00  0.00000000E+00
 -3.75608936E-01  0.00000000E+00  0.00000000E+00 -3.98324916E-01  0.00000000E+00
  0.00000000E+00  0.00000000E+00 -1.32859572E-02  0.00000000E+00  0.00000000E+00
  0.00000000E+00  0.00000000E+00  0.00000000E+00  0.00000000E+00  6.13444500E-01
  0.00000000E+00  0.00000000E+00  6.05285464E-01  0.00000000E+00  0.00000000E+00
  0.00000000E+00  0.00000000E+00  0.00000000E+00  0.00000000E+00  0.00000000E+00
  0.00000000E+00  0.00000000E+00  0.00000000E+00 -3.75608936E-01  0.00000000E+00
  0.00000000E+00 -3.98324916E-01  0.00000000E+00  0.00000000E+00  0.00000000E+00
  1.32859572E-02  0.00000000E+00  0.00000000E+00  0.00000000E+00  0.00000000E+00
  0.00000000E+00  0.00000000E+00  0.00000000E+00 -3.75608936E-01  0.00000000E+00
  0.00000000E+00 -3.98324916E-01  0.00000000E+00  0.00000000E+00  0.00000000E+00
 -1.32859572E-02  0.00000000E+00  0.00000000E+00  0.00000000E+00  0.00000000E+00
  0.00000000E+00  0.00000000E+00  6.13444500E-01  0.00000000E+00  0.00000000E+00
  6.05285464E-01  0.00000000E+00  0.00000000E+00  0.00000000E+00  0.00000000E+00
  0.00000000E+00  0.00000000E+00  0.00000000E+00  0.00000000E+00  0.00000000E+00
  0.00000000E+00 -3.75608936E-01  0.00000000E+00  0.00000000E+00 -3.98324916E-01
  0.00000000E+00  0.00000000E+00  0.00000000E+00  1.32859572E-02  0.00000000E+00
  0.00000000E+00  7.47710122E-02 -1.50786803E-01 -7.96026689E-01  0.00000000E+00
  0.00000000E+00  2.88936198E-01  0.00000000E+00  0.00000000E+00  4.87749326E-01
 -2.59011465E-02  0.00000000E+00  0.00000000E+00  2.41629185E-16  0.00000000E+00
 -9.02251503E-02  6.46060270E-02  2.01799370E+00  0.00000000E+00  0.00000000E+00
  0.00000000E+00  0.00000000E+00  0.00000000E+00  0.00000000E+00 -1.41183476E-02
  0.00000000E+00  0.00000000E+00 -3.47857829E-15  0.00000000E+00  7.47710122E-02
 -1.50786803E-01 -7.96026689E-01  0.00000000E+00  0.00000000E+00 -2.88936198E-01
  0.00000000E+00  0.00000000E+00 -4.87749326E-01 -2.59011465E-02  0.00000000E+00
  0.00000000E+00  2.41629185E-16  0.00000000E+00  8.33379765E-02 -6.90470193E-02
 -1.76922857E+00  0.00000000E+00  0.00000000E+00 -8.74488297E-02  0.00000000E+00
  0.00000000E+00  3.97089687E-01 -2.17264632E-02  0.00000000E+00  0.00000000E+00
 -3.04062613E-15  0.00000000E+00  0.00000000E+00  0.00000000E+00  0.00000000E+00
  0.00000000E+00  0.00000000E+00  3.95035135E-02  0.00000000E+00  0.00000000E+00
  2.76762573E+00  0.00000000E+00  0.00000000E+00  0.00000000E+00  0.00000000E+00
  0.00000000E+00 -8.33379765E-02  6.90470193E-02  1.76922857E+00  0.00000000E+00
  0.00000000E+00 -8.74488297E-02  0.00000000E+00  0.00000000E+00  3.97089687E-01
  2.17264632E-02  0.00000000E+00  0.00000000E+00  3.04062613E-15  0.00000000E+00
  0.00000000E+00  0.00000000E+00  0.00000000E+00 -7.96743439E-02  0.00000000E+00
  0.00000000E+00 -1.53010138E-01  0.00000000E+00  0.00000000E+00  0.00000000E+00
  3.07335339E-02  0.00000000E+00  0.00000000E+00  0.00000000E+00  0.00000000E+00
  0.00000000E+00  0.00000000E+00 -8.98172657E-01  0.00000000E+00  0.00000000E+00
  1.26576812E+00  0.00000000E+00  0.00000000E+00  0.00000000E+00  0.00000000E+00
  0.00000000E+00  0.00000000E+00  0.00000000E+00  0.00000000E+00  0.00000000E+00
  0.00000000E+00 -7.96743439E-02  0.00000000E+00  0.00000000E+00 -1.53010138E-01
  0.00000000E+00  0.00000000E+00  0.00000000E+00 -3.07335339E-02  0.00000000E+00
  0.00000000E+00  0.00000000E+00  0.00000000E+00  0.00000000E+00  0.00000000E+00
  0.00000000E+00 -7.96743439E-02  0.00000000E+00  0.00000000E+00 -1.53010138E-01
  0.00000000E+00  0.00000000E+00  0.00000000E+00  3.07335339E-02  0.00000000E+00
  0.00000000E+00  0.00000000E+00  0.00000000E+00  0.00000000E+00  0.00000000E+00
 -8.98172657E-01  0.00000000E+00  0.00000000E+00  1.26576812E+00  0.00000000E+00
  0.00000000E+00  0.00000000E+00  0.00000000E+00  0.00000000E+00  0.00000000E+00
  0.00000000E+00  0.00000000E+00  0.00000000E+00  0.00000000E+00 -7.96743439E-02
  0.00000000E+00  0.00000000E+00 -1.53010138E-01  0.00000000E+00  0.00000000E+00
  0.00000000E+00 -3.07335339E-02  0.00000000E+00  0.00000000E+00 -4.04126833E-03
  6.81242654E-02 -9.07769741E-01  0.00000000E+00  0.00000000E+00 -3.50176773E-01
  0.00000000E+00  0.00000000E+00  4.79001457E-01 -8.61158012E-02  0.00000000E+00
  0.00000000E+00 -5.83866244E-16  0.00000000E+00  8.38625217E-02 -1.11145936E+00
  2.30622471E+00  0.00000000E+00  0.00000000E+00  0.00000000E+00  0.00000000E+00
  0.00000000E+00  0.00000000E+00  5.12224778E-01  0.00000000E+00  0.00000000E+00
 -1.24530841E-14  0.00000000E+00 -4.04126833E-03  6.81242654E-02 -9.07769741E-01
  0.00000000E+00  0.00000000E+00  3.50176773E-01  0.00000000E+00  0.00000000E+00
 -4.79001457E-01 -8.61158012E-02  0.00000000E+00  0.00000000E+00 -5.83866244E-16
  0.00000000E+00  5.61026274E-02 -1.61071572E-01 -4.33208959E-01  0.00000000E+00
  0.00000000E+00  2.46696016E-03  0.00000000E+00  0.00000000E+00  9.37882878E-01
  7.86110949E-02  0.00000000E+00  0.00000000E+00 -3.70160943E-16  0.00000000E+00
  0.00000000E+00  0.00000000E+00  0.00000000E+00  0.00000000E+00  0.00000000E+00
  1.19232393E+00  0.00000000E+00  0.00000000E+00 -7.97453863E-02  0.00000000E+00
  0.00000000E+00  0.00000000E+00  0.00000000E+00  0.00000000E+00 -5.61026274E-02
  1.61071572E-01  4.33208959E-01  0.00000000E+00  0.00000000E+00  2.46696016E-03
  0.00000000E+00  0.00000000E+00  9.37882878E-01 -7.86110949E-02  0.00000000E+00
  0.00000000E+00  3.70160943E-16  0.00000000E+00  4.69568762E-02 -1.85153233E-01
 -6.03223818E-01  0.00000000E+00  0.00000000E+00 -3.26622668E-01  0.00000000E+00
  0.00000000E+00  1.19497858E+00  1.50378347E-02  0.00000000E+00  0.00000000E+00
  4.61609945E-16  0.00000000E+00  6.58053619E-02  1.35237498E+00  6.59084766E-01
  0.00000000E+00  0.00000000E+00  0.00000000E+00  0.00000000E+00  0.00000000E+00
  0.00000000E+00  3.17105686E-01  0.00000000E+00  0.00000000E+00 -4.07012642E-15
  0.00000000E+00  4.69568762E-02 -1.85153233E-01 -6.03223818E-01  0.00000000E+00
  0.00000000E+00  3.26622668E-01  0.00000000E+00  0.00000000E+00 -1.19497858E+00
  1.50378347E-02  0.00000000E+00  0.00000000E+00  4.61609945E-16  0.00000000E+00
  0.00000000E+00  0.00000000E+00  0.00000000E+00  0.00000000E+00 -5.91037136E-01
  0.00000000E+00  0.00000000E+00  8.84159681E-01  0.00000000E+00  0.00000000E+00
  0.00000000E+00  9.96635311E-03  0.00000000E+00  0.00000000E+00  0.00000000E+00
  0.00000000E+00  0.00000000E+00  0.00000000E+00  0.00000000E+00  0.00000000E+00
  0.00000000E+00  0.00000000E+00  0.00000000E+00  0.00000000E+00  0.00000000E+00
 -3.71826114E-01  0.00000000E+00  0.00000000E+00  0.00000000E+00  0.00000000E+00
  0.00000000E+00  0.00000000E+00  5.91037136E-01  0.00000000E+00  0.00000000E+00
 -8.84159681E-01  0.00000000E+00  0.00000000E+00  0.00000000E+00  9.96635311E-03
  0.00000000E+00  0.00000000E+00  0.00000000E+00  0.00000000E+00  0.00000000E+00
 -5.91037136E-01  0.00000000E+00  0.00000000E+00  8.84159681E-01  0.00000000E+00
  0.00000000E+00  0.00000000E+00  9.96635311E-03  0.00000000E+00  0.00000000E+00
  0.00000000E+00  0.00000000E+00  0.00000000E+00  0.00000000E+00  0.00000000E+00
  0.00000000E+00  0.00000000E+00  0.00000000E+00  0.00000000E+00  0.00000000E+00
  0.00000000E+00 -3.71826114E-01  0.00000000E+00  0.00000000E+00  0.00000000E+00
  0.00000000E+00  0.00000000E+00  0.00000000E+00  5.91037136E-01  0.00000000E+00
  0.00000000E+00 -8.84159681E-01  0.00000000E+00  0.00000000E+00  0.00000000E+00
  9.96635311E-03  0.00000000E+00  0.00000000E+00  0.00000000E+00  0.00000000E+00
  0.00000000E+00  0.00000000E+00  0.00000000E+00  0.00000000E+00  0.00000000E+00
  0.00000000E+00  0.00000000E+00  0.00000000E+00  0.00000000E+00  0.00000000E+00
  0.00000000E+00  0.00000000E+00  7.69041754E-02  0.00000000E+00  0.00000000E+00
  0.00000000E+00  0.00000000E+00  0.00000000E+00  0.00000000E+00  0.00000000E+00
  0.00000000E+00  0.00000000E+00  0.00000000E+00  0.00000000E+00  0.00000000E+00
  0.00000000E+00  9.75036002E-01  0.00000000E+00  0.00000000E+00  0.00000000E+00
  0.00000000E+00  0.00000000E+00  0.00000000E+00  0.00000000E+00  0.00000000E+00
  0.00000000E+00  0.00000000E+00  0.00000000E+00  0.00000000E+00  0.00000000E+00
  7.69041754E-02  3.86965418E-16 -8.65471166E-15  1.33343384E-14  0.00000000E+00
  0.00000000E+00 -9.71821373E-15  0.00000000E+00  0.00000000E+00  2.74513315E-15
 -9.20894578E-16  0.00000000E+00  0.00000000E+00  7.69048193E-02  0.00000000E+00
  1.20719003E-15 -1.77812135E-14  7.01506977E-15  0.00000000E+00  0.00000000E+00
  0.00000000E+00  0.00000000E+00  0.00000000E+00  0.00000000E+00 -6.50151909E-15
  0.00000000E+00  0.00000000E+00  9.75035745E-01  0.00000000E+00  3.86965418E-16
 -8.65471166E-15  1.33343384E-14  0.00000000E+00  0.00000000E+00  9.71821373E-15
  0.00000000E+00  0.00000000E+00 -2.74513315E-15 -9.20894578E-16  0.00000000E+00
  0.00000000E+00  7.69048193E-02  0.00000000E+00  2.38846461E-02 -1.53620185E-01
 -2.52777751E-01  0.00000000E+00  0.00000000E+00  7.56844505E-01  0.00000000E+00
  0.00000000E+00 -5.72553519E-01  3.43283611E-02  0.00000000E+00  0.00000000E+00
 -9.59214447E-17  0.00000000E+00  0.00000000E+00  0.00000000E+00  0.00000000E+00
  0.00000000E+00  0.00000000E+00  5.77023582E-01  0.00000000E+00  0.00000000E+00
  3.15098184E-01  0.00000000E+00  0.00000000E+00  0.00000000E+00  0.00000000E+00
  0.00000000E+00 -2.38846461E-02  1.53620185E-01  2.52777751E-01  0.00000000E+00
  0.00000000E+00  7.56844505E-01  0.00000000E+00  0.00000000E+00 -5.72553519E-01
 -3.43283611E-02  0.00000000E+00  0.00000000E+00  9.59214447E-17  0.00000000E+00
  0.00000000E+00  0.00000000E+00  0.00000000E+00 -6.62145629E-01  0.00000000E+00
  0.00000000E+00  1.12525139E+00  0.00000000E+00  0.00000000E+00  0.00000000E+00
  4.70632141E-02  0.00000000E+00  0.00000000E+00  0.00000000E+00  0.00000000E+00
  0.00000000E+00  0.00000000E+00  4.77280491E-02  0.00000000E+00  0.00000000E+00
 -9.72147674E-01  0.00000000E+00  0.00000000E+00  0.00000000E+00  0.00000000E+00
  0.00000000E+00  0.00000000E+00  0.00000000E+00  0.00000000E+00  0.00000000E+00
  0.00000000E+00 -6.62145629E-01  0.00000000E+00  0.00000000E+00  1.12525139E+00
  0.00000000E+00  0.00000000E+00  0.00000000E+00 -4.70632141E-02  0.00000000E+00
  0.00000000E+00  0.00000000E+00  0.00000000E+00  0.00000000E+00  0.00000000E+00
  0.00000000E+00 -6.62145629E-01  0.00000000E+00  0.00000000E+00  1.12525139E+00
  0.00000000E+00  0.00000000E+00  0.00000000E+00  4.70632141E-02  0.00000000E+00
  0.00000000E+00  0.00000000E+00  0.00000000E+00  0.00000000E+00  0.00000000E+00
  4.77280491E-02  0.00000000E+00  0.00000000E+00 -9.72147674E-01  0.00000000E+00
  0.00000000E+00  0.00000000E+00  0.00000000E+00  0.00000000E+00  0.00000000E+00
  0.00000000E+00  0.00000000E+00  0.00000000E+00  0.00000000E+00 -6.62145629E-01
  0.00000000E+00  0.00000000E+00  1.12525139E+00  0.00000000E+00  0.00000000E+00
  0.00000000E+00 -4.70632141E-02  0.00000000E+00  0.00000000E+00  0.00000000E+00
  0.00000000E+00  0.00000000E+00 -3.44909287E-01  0.00000000E+00  0.00000000E+00
 -1.54673251E-01  0.00000000E+00  0.00000000E+00  0.00000000E+00 -1.17917779E-01
  0.00000000E+00  0.00000000E+00  0.00000000E+00  0.00000000E+00  0.00000000E+00