H2CO MP2/aug-cc-pVTZ (Opt/Freq)                                         
Freq      RMP2-FC                                                     Aug-CC-pVTZ         
Number of atoms                            I                4
Info1-9                                    I   N=           9
          13          13        1002           0           0         100
           6           2           1
Charge                                     I                0
Multiplicity                               I                1
Number of electrons                        I               16
Number of alpha electrons                  I                8
Number of beta electrons                   I                8
Number of basis functions                  I              138
Number of independent functions            I              138
Number of point charges in /Mol/           I                0
Number of translation vectors              I                0
Atomic numbers                             I   N=           4
           6           8           1           1
Nuclear charges                            R   N=           4
  6.00000000E+00  8.00000000E+00  1.00000000E+00  1.00000000E+00
Current cartesian coordinates              R   N=          12
  0.00000000E+00  2.95822839E-31 -1.00940804E+00 -3.94430453E-31 -6.90253292E-31
  1.28265243E+00  9.86076132E-31  1.76852012E+00 -2.10238559E+00 -2.16581250E-16
 -1.76852012E+00 -2.10238559E+00
Force Field                                I                0
Int Atom Types                             I   N=           4
           0           0           0           0
MM charges                                 R   N=           4
  0.00000000E+00  0.00000000E+00  0.00000000E+00  0.00000000E+00
Integer atomic weights                     I   N=           4
          12          16           1           1
Real atomic weights                        R   N=           4
  1.20000000E+01  1.59949146E+01  1.00782504E+00  1.00782504E+00
Atom fragment info                         I   N=           4
           0           0           0           0
Atom residue num                           I   N=           4
           0           0           0           0
Nuclear spins                              I   N=           4
           0           0           1           1
Nuclear ZEff                               R   N=           4
 -3.60000000E+00 -5.60000000E+00 -1.00000000E+00 -1.00000000E+00
Nuclear QMom                               R   N=           4
  0.00000000E+00  0.00000000E+00  0.00000000E+00  0.00000000E+00
Nuclear GFac                               R   N=           4
  0.00000000E+00  0.00000000E+00  2.79284600E+00  2.79284600E+00
MicOpt                                     I   N=           4
          -1          -1          -1          -1
Number of contracted shells                I               46
Number of primitive shells                 I               76
Pure/Cartesian d shells                    I                0
Pure/Cartesian f shells                    I                0
Highest angular momentum                   I                3
Largest degree of contraction              I                7
Shell types                                I   N=          46
           0           0           0           0           0           1
           1           1           1          -2          -2          -2
          -3          -3           0           0           0           0
           0           1           1           1           1          -2
          -2          -2          -3          -3           0           0
           0           0           1           1           1          -2
          -2           0           0           0           0           1
           1           1          -2          -2
Number of primitives per shell             I   N=          46
           7           6           1           1           1           3
           1           1           1           1           1           1
           1           1           7           6           1           1
           1           3           1           1           1           1
           1           1           1           1           3           1
           1           1           1           1           1           1
           1           3           1           1           1           1
           1           1           1           1
Shell to atom map                          I   N=          46
           1           1           1           1           1           1
           1           1           1           1           1           1
           1           1           2           2           2           2
           2           2           2           2           2           2
           2           2           2           2           3           3
           3           3           3           3           3           3
           3           4           4           4           4           4
           4           4           4           4
Primitive exponents                        R   N=          76
  8.23600000E+03  1.23500000E+03  2.80800000E+02  7.92700000E+01  2.55900000E+01
  8.99700000E+00  3.31900000E+00  2.80800000E+02  7.92700000E+01  2.55900000E+01
  8.99700000E+00  3.31900000E+00  3.64300000E-01  9.05900000E-01  1.28500000E-01
  4.40200000E-02  1.87100000E+01  4.13300000E+00  1.20000000E+00  3.82700000E-01
  1.20900000E-01  3.56900000E-02  1.09700000E+00  3.18000000E-01  1.00000000E-01
  7.61000000E-01  2.68000000E-01  1.53300000E+04  2.29900000E+03  5.22400000E+02
  1.47300000E+02  4.75500000E+01  1.67600000E+01  6.20700000E+00  5.22400000E+02
  1.47300000E+02  4.75500000E+01  1.67600000E+01  6.20700000E+00  6.88200000E-01
  1.75200000E+00  2.38400000E-01  7.37600000E-02  3.44600000E+01  7.74900000E+00
  2.28000000E+00  7.15600000E-01  2.14000000E-01  5.97400000E-02  2.31400000E+00
  6.45000000E-01  2.14000000E-01  1.42800000E+00  5.00000000E-01  3.38700000E+01
  5.09500000E+00  1.15900000E+00  3.25800000E-01  1.02700000E-01  2.52600000E-02
  1.40700000E+00  3.88000000E-01  1.02000000E-01  1.05700000E+00  2.47000000E-01
  3.38700000E+01  5.09500000E+00  1.15900000E+00  3.25800000E-01  1.02700000E-01
  2.52600000E-02  1.40700000E+00  3.88000000E-01  1.02000000E-01  1.05700000E+00
  2.47000000E-01
Contraction coefficients                   R   N=          76
  5.41978320E-04  4.19287382E-03  2.15221621E-02  8.35343220E-02  2.39582846E-01
  4.42852842E-01  3.51799562E-01 -5.94922494E-05 -1.14815831E-03 -1.00191374E-02
 -6.12194923E-02 -1.73269854E-01  1.07291519E+00  1.00000000E+00  1.00000000E+00
  1.00000000E+00  3.94263872E-02  2.44088985E-01  8.15492009E-01  1.00000000E+00
  1.00000000E+00  1.00000000E+00  1.00000000E+00  1.00000000E+00  1.00000000E+00
  1.00000000E+00  1.00000000E+00  5.19808943E-04  4.02025621E-03  2.07128267E-02
  8.10105536E-02  2.35962985E-01  4.42653446E-01  3.57064423E-01 -4.42115008E-05
 -1.22591041E-03 -1.05517725E-02 -6.74452633E-02 -1.71198607E-01  1.07329856E+00
  1.00000000E+00  1.00000000E+00  1.00000000E+00  4.11634896E-02  2.57762836E-01
  8.02419274E-01  1.00000000E+00  1.00000000E+00  1.00000000E+00  1.00000000E+00
  1.00000000E+00  1.00000000E+00  1.00000000E+00  1.00000000E+00  2.54948632E-02
  1.90362766E-01  8.52162022E-01  1.00000000E+00  1.00000000E+00  1.00000000E+00
  1.00000000E+00  1.00000000E+00  1.00000000E+00  1.00000000E+00  1.00000000E+00
  2.54948632E-02  1.90362766E-01  8.52162022E-01  1.00000000E+00  1.00000000E+00
  1.00000000E+00  1.00000000E+00  1.00000000E+00  1.00000000E+00  1.00000000E+00
  1.00000000E+00
Coordinates of each shell                  R   N=         138
  0.00000000E+00  1.97215226E-31 -1.00940804E+00  0.00000000E+00  1.97215226E-31
 -1.00940804E+00  0.00000000E+00  1.97215226E-31 -1.00940804E+00  0.00000000E+00
  1.97215226E-31 -1.00940804E+00  0.00000000E+00  1.97215226E-31 -1.00940804E+00
  0.00000000E+00  1.97215226E-31 -1.00940804E+00  0.00000000E+00  1.97215226E-31
 -1.00940804E+00  0.00000000E+00  1.97215226E-31 -1.00940804E+00  0.00000000E+00
  1.97215226E-31 -1.00940804E+00  0.00000000E+00  1.97215226E-31 -1.00940804E+00
  0.00000000E+00  1.97215226E-31 -1.00940804E+00  0.00000000E+00  1.97215226E-31
 -1.00940804E+00  0.00000000E+00  1.97215226E-31 -1.00940804E+00  0.00000000E+00
  1.97215226E-31 -1.00940804E+00 -1.97215226E-31 -3.94430453E-31  1.28265243E+00
 -1.97215226E-31 -3.94430453E-31  1.28265243E+00 -1.97215226E-31 -3.94430453E-31
  1.28265243E+00 -1.97215226E-31 -3.94430453E-31  1.28265243E+00 -1.97215226E-31
 -3.94430453E-31  1.28265243E+00 -1.97215226E-31 -3.94430453E-31  1.28265243E+00
 -1.97215226E-31 -3.94430453E-31  1.28265243E+00 -1.97215226E-31 -3.94430453E-31
  1.28265243E+00 -1.97215226E-31 -3.94430453E-31  1.28265243E+00 -1.97215226E-31
 -3.94430453E-31  1.28265243E+00 -1.97215226E-31 -3.94430453E-31  1.28265243E+00
 -1.97215226E-31 -3.94430453E-31  1.28265243E+00 -1.97215226E-31 -3.94430453E-31
  1.28265243E+00 -1.97215226E-31 -3.94430453E-31  1.28265243E+00  5.91645679E-31
  1.76852012E+00 -2.10238559E+00  5.91645679E-31  1.76852012E+00 -2.10238559E+00
  5.91645679E-31  1.76852012E+00 -2.10238559E+00  5.91645679E-31  1.76852012E+00
 -2.10238559E+00  5.91645679E-31  1.76852012E+00 -2.10238559E+00  5.91645679E-31
  1.76852012E+00 -2.10238559E+00  5.91645679E-31  1.76852012E+00 -2.10238559E+00
  5.91645679E-31  1.76852012E+00 -2.10238559E+00  5.91645679E-31  1.76852012E+00
 -2.10238559E+00 -2.16581250E-16 -1.76852012E+00 -2.10238559E+00 -2.16581250E-16
 -1.76852012E+00 -2.10238559E+00 -2.16581250E-16 -1.76852012E+00 -2.10238559E+00
 -2.16581250E-16 -1.76852012E+00 -2.10238559E+00 -2.16581250E-16 -1.76852012E+00
 -2.10238559E+00 -2.16581250E-16 -1.76852012E+00 -2.10238559E+00 -2.16581250E-16
 -1.76852012E+00 -2.10238559E+00 -2.16581250E-16 -1.76852012E+00 -2.10238559E+00
 -2.16581250E-16 -1.76852012E+00 -2.10238559E+00
Constraint Structure                       R   N=          12
  0.00000000E+00  1.97215226E-31 -1.00940804E+00 -1.97215226E-31 -3.94430453E-31
  1.28265243E+00  5.91645679E-31  1.76852012E+00 -2.10238559E+00 -2.16581250E-16
 -1.76852012E+00 -2.10238559E+00
Num ILSW                                   I              100
ILSW                                       I   N=         100
           0           0           0           0           2           0
           0           0           0           0           0          -1
           0           0           0           0           0           0
           0           0           0           0           1           0
           1           0           0           0           0           0
           0           0      100000           0          -1           0
           0           0           0           0           0           0
           0           0           0           1           1           0
           0           0           1           0           0           0
           0           0           4          40           0           0
           0           0           0           0           0           0
           0           0           0           0           0           0
           0           0           0           0           0           0
           0           0           0           0           0           0
           0           0           0           0           0           0
           0           0           0           0           0           0
           0           0           0           0
Num RLSW                                   I               40
RLSW                                       R   N=          40
  1.00000000E+00  1.00000000E+00  1.00000000E+00  1.00000000E+00  1.00000000E+00
  0.00000000E+00  0.00000000E+00  1.00000000E+00  0.00000000E+00  0.00000000E+00
  0.00000000E+00  0.00000000E+00  1.00000000E+00  0.00000000E+00  0.00000000E+00
  0.00000000E+00  0.00000000E+00  1.00000000E+00  0.00000000E+00  0.00000000E+00
  0.00000000E+00  0.00000000E+00  1.00000000E+00  0.00000000E+00  0.00000000E+00
  0.00000000E+00  0.00000000E+00  1.00000000E+00  0.00000000E+00  0.00000000E+00
  0.00000000E+00  0.00000000E+00  0.00000000E+00  0.00000000E+00  0.00000000E+00
  0.00000000E+00  0.00000000E+00  0.00000000E+00  1.00000000E+00  1.00000000E+00
MxBond                                     I                3
NBond                                      I   N=           4
           3           1           1           1
IBond                                      I   N=          12
           2           3           4           1           0           0
           1           0           0           1           0           0
RBond                                      R   N=          12
  2.00000000E+00  1.00000000E+00  1.00000000E+00  2.00000000E+00  0.00000000E+00
  0.00000000E+00  1.00000000E+00  0.00000000E+00  0.00000000E+00  1.00000000E+00
  0.00000000E+00  0.00000000E+00
Virial Ratio                               R      2.002048847616298E+00
SCF Energy                                 R     -1.139131428388902E+02
MP2 Energy                                 R     -1.143164100989564E+02
Total Energy                               R     -1.143164100989564E+02
Post-SCF wavefunction norm                 R      1.492162755709793E+00
RMS Force                                  R      2.396762019048864E-05
RMS Density                                R      4.813949116675688E-10
External E-field                           R   N=          35
  0.00000000E+00  0.00000000E+00  0.00000000E+00  0.00000000E+00  0.00000000E+00
  0.00000000E+00  0.00000000E+00  0.00000000E+00  0.00000000E+00  0.00000000E+00
  0.00000000E+00  0.00000000E+00  0.00000000E+00  0.00000000E+00  0.00000000E+00
  0.00000000E+00  0.00000000E+00  0.00000000E+00  0.00000000E+00  0.00000000E+00
  0.00000000E+00  0.00000000E+00  0.00000000E+00  0.00000000E+00  0.00000000E+00
  0.00000000E+00  0.00000000E+00  0.00000000E+00  0.00000000E+00  0.00000000E+00
  0.00000000E+00  0.00000000E+00  0.00000000E+00  0.00000000E+00  0.00000000E+00
IOpCl                                      I                0
IROHF                                      I                0
Alpha Orbital Energies                     R   N=         138
 -2.05792849E+01 -1.13435259E+01 -1.40227507E+00 -8.72959836E-01 -6.94417530E-01
 -6.50668243E-01 -5.34298001E-01 -4.44858596E-01  2.61364948E-02  4.15852614E-02
  6.19805994E-02  7.64955551E-02  1.28011493E-01  1.32806982E-01  1.33550632E-01
  1.74417576E-01  1.97939150E-01  2.11931038E-01  2.17063562E-01  2.53863754E-01
  2.55936233E-01  2.81119136E-01  3.20091229E-01  3.37983481E-01  3.39218868E-01
  3.58959117E-01  3.87761524E-01  3.89948116E-01  3.95920798E-01  4.18395602E-01
  4.81938563E-01  4.98062538E-01  5.62273749E-01  5.66611208E-01  6.69384319E-01
  6.76890111E-01  7.20062247E-01  7.64059823E-01  8.19114015E-01  8.34493239E-01
  8.42169191E-01  8.56768785E-01  8.75556042E-01  8.81553003E-01  9.27762600E-01
  9.33868812E-01  9.39654160E-01  9.78445381E-01  1.00049456E+00  1.02065798E+00
  1.02348516E+00  1.03593016E+00  1.06831376E+00  1.08218089E+00  1.09832128E+00
  1.10129683E+00  1.25904898E+00  1.26321732E+00  1.30496981E+00  1.36889695E+00
  1.38947232E+00  1.45703641E+00  1.47673331E+00  1.51244406E+00  1.57178448E+00
  1.59670077E+00  1.62662711E+00  1.70710919E+00  1.72835372E+00  1.83228445E+00
  1.96234429E+00  2.00595256E+00  2.03203735E+00  2.09809135E+00  2.17893779E+00
  2.28531820E+00  2.32042639E+00  2.33903397E+00  2.34370579E+00  2.48847463E+00
  2.49678936E+00  2.55992854E+00  2.60120722E+00  2.71450689E+00  2.78010901E+00
  2.80804388E+00  2.91789083E+00  2.92628275E+00  3.06685038E+00  3.07943873E+00
  3.14367840E+00  3.18651587E+00  3.41057997E+00  3.43980893E+00  3.52857839E+00
  3.56336120E+00  3.62563721E+00  3.65928590E+00  3.70094061E+00  3.89600692E+00
  3.95442606E+00  4.05077332E+00  4.11574508E+00  4.15376384E+00  4.16246029E+00
  4.21739442E+00  4.24223165E+00  4.36255574E+00  4.57668128E+00  4.64795295E+00
  4.68802592E+00  4.76493856E+00  5.02944852E+00  5.04263840E+00  5.10423809E+00
  5.14866349E+00  5.24860627E+00  5.28511286E+00  5.32973405E+00  5.38689541E+00
  5.89541347E+00  6.13302478E+00  6.23350371E+00  6.49978779E+00  6.59797380E+00
  6.61713848E+00  6.91252174E+00  6.94318738E+00  7.08202124E+00  7.18882309E+00
  7.20393902E+00  7.40643290E+00  7.52465712E+00  7.67917874E+00  7.71995257E+00
  7.76514609E+00  1.48207447E+01  1.63955147E+01
Alpha MO coefficients                      R   N=       19044
  6.60087347E-05  9.22875523E-04  9.38923360E-06  1.20061866E-03  2.80288941E-04
  0.00000000E+00  0.00000000E+00  2.06712552E-04  0.00000000E+00  0.00000000E+00
  3.00989522E-03  0.00000000E+00  0.00000000E+00  2.38465529E-04  0.00000000E+00
  0.00000000E+00  7.25246908E-05  4.54648386E-04  0.00000000E+00  0.00000000E+00
  5.68207282E-05  0.00000000E+00  1.48105171E-03  0.00000000E+00  0.00000000E+00
  4.25787201E-04  0.00000000E+00 -1.05769864E-03  0.00000000E+00  0.00000000E+00
 -5.62528096E-04  0.00000000E+00  5.29093273E-05  0.00000000E+00  0.00000000E+00
 -9.08981258E-05  0.00000000E+00  0.00000000E+00  0.00000000E+00  7.00835498E-04
  0.00000000E+00  0.00000000E+00  1.74365086E-04  0.00000000E+00  0.00000000E+00
  0.00000000E+00  9.76636874E-01 -9.78715507E-03  4.35689842E-02  1.56745124E-03
 -9.52565618E-05  0.00000000E+00  0.00000000E+00 -1.92185783E-03  0.00000000E+00
  0.00000000E+00  2.25446101E-03  0.00000000E+00  0.00000000E+00  4.90328904E-04
  0.00000000E+00  0.00000000E+00  3.98542222E-05  1.84763831E-04  0.00000000E+00
  0.00000000E+00 -1.24217777E-04  0.00000000E+00 -7.77716842E-04  0.00000000E+00
  0.00000000E+00 -1.72935382E-04  0.00000000E+00 -6.32693911E-05  0.00000000E+00
  0.00000000E+00 -4.14108084E-06  0.00000000E+00  4.30312598E-05  0.00000000E+00
  0.00000000E+00 -2.86669835E-05  0.00000000E+00  0.00000000E+00  0.00000000E+00
  1.81052695E-04  0.00000000E+00  0.00000000E+00  4.82158469E-05  0.00000000E+00
  0.00000000E+00  0.00000000E+00  1.87143187E-05  5.13681189E-04 -6.94724358E-04
 -1.65695897E-05  0.00000000E+00 -4.28394428E-05  3.18486832E-05  0.00000000E+00
 -3.49107066E-04  3.13535569E-04  0.00000000E+00 -3.70544610E-04 -6.28841125E-04
 -3.23596253E-05  0.00000000E+00 -2.87863668E-05 -2.23637361E-05  0.00000000E+00
  9.91649563E-05  0.00000000E+00  5.04029598E-05 -1.21314993E-04  0.00000000E+00
  1.87143187E-05  5.13681189E-04 -6.94724358E-04 -1.65695897E-05  0.00000000E+00
  4.28394428E-05  3.18486832E-05  0.00000000E+00  3.49107066E-04  3.13535569E-04
  0.00000000E+00  3.70544610E-04 -6.28841125E-04 -3.23596253E-05  0.00000000E+00
  2.87863668E-05 -2.23637361E-05  0.00000000E+00  9.91649563E-05  0.00000000E+00
 -5.04029598E-05 -1.21314993E-04  0.00000000E+00  9.79028933E-01 -6.06729596E-03
  4.14840374E-02  9.78934967E-03  2.54618400E-03  0.00000000E+00  0.00000000E+00
  2.19760243E-04  0.00000000E+00  0.00000000E+00  1.46507395E-03  0.00000000E+00
  0.00000000E+00 -1.68868249E-03  0.00000000E+00  0.00000000E+00 -1.26808739E-04
  8.02445259E-04  0.00000000E+00  0.00000000E+00 -6.42027103E-04  0.00000000E+00
  1.05683988E-04  0.00000000E+00  0.00000000E+00  1.98093288E-04  0.00000000E+00
 -1.02662124E-03  0.00000000E+00  0.00000000E+00 -9.01976508E-04  0.00000000E+00
  9.03904695E-04  0.00000000E+00  0.00000000E+00  6.10283137E-04  0.00000000E+00
  0.00000000E+00  0.00000000E+00 -1.18225415E-03  0.00000000E+00  0.00000000E+00
 -7.53599804E-04  0.00000000E+00  0.00000000E+00  0.00000000E+00 -3.17360661E-04
  6.25826270E-04  2.76870604E-04 -8.39493545E-04 -6.59281924E-04  0.00000000E+00
  0.00000000E+00 -4.25306193E-04  0.00000000E+00  0.00000000E+00  3.60243504E-04
  0.00000000E+00  0.00000000E+00  1.96305475E-03  0.00000000E+00  0.00000000E+00
  1.81758890E-04  3.84487455E-05  0.00000000E+00  0.00000000E+00  1.72782278E-05
  0.00000000E+00 -7.21652107E-04  0.00000000E+00  0.00000000E+00  1.06268312E-05
  0.00000000E+00 -6.77358155E-04  0.00000000E+00  0.00000000E+00  3.17818231E-04
  0.00000000E+00 -5.80875566E-05  0.00000000E+00  0.00000000E+00  2.38008710E-05
  0.00000000E+00  0.00000000E+00  0.00000000E+00  4.40334700E-04  0.00000000E+00
  0.00000000E+00 -8.71232247E-06  0.00000000E+00  0.00000000E+00  0.00000000E+00
  2.33349528E-04  7.08560460E-04 -4.96547879E-03 -3.49674732E-04  0.00000000E+00
  2.52614518E-04 -1.87801731E-04  0.00000000E+00  3.84272149E-04 -9.11362120E-05
  0.00000000E+00  6.47185298E-04 -1.23402158E-03  6.04886230E-05  0.00000000E+00
  2.87547770E-04  1.74741102E-04  0.00000000E+00 -2.28788136E-04  0.00000000E+00
 -5.80317926E-05  2.31205649E-04  0.00000000E+00  2.33349528E-04  7.08560460E-04
 -4.96547879E-03 -3.49674732E-04  0.00000000E+00 -2.52614518E-04 -1.87801731E-04
  0.00000000E+00 -3.84272149E-04 -9.11362120E-05  0.00000000E+00 -6.47185298E-04
 -1.23402158E-03  6.04886230E-05  0.00000000E+00 -2.87547770E-04  1.74741102E-04
  0.00000000E+00 -2.28788136E-04  0.00000000E+00  5.80317926E-05  2.31205649E-04
  0.00000000E+00 -1.02516362E-01  2.38551552E-01  5.20250352E-02  1.28862287E-01
  7.90794758E-03  0.00000000E+00  0.00000000E+00  9.89379755E-02  0.00000000E+00
  0.00000000E+00  7.09593249E-02  0.00000000E+00  0.00000000E+00 -2.21190963E-02
  0.00000000E+00  0.00000000E+00 -1.71005638E-03  1.85272864E-02  0.00000000E+00
  0.00000000E+00 -2.31724293E-03  0.00000000E+00  9.61017625E-03  0.00000000E+00
  0.00000000E+00 -1.47846973E-02  0.00000000E+00 -1.63622790E-02  0.00000000E+00
  0.00000000E+00 -7.90133557E-03  0.00000000E+00  8.10404576E-03  0.00000000E+00
  0.00000000E+00  4.55718553E-03  0.00000000E+00  0.00000000E+00  0.00000000E+00
 -5.34084227E-04  0.00000000E+00  0.00000000E+00  2.83047825E-03  0.00000000E+00
  0.00000000E+00  0.00000000E+00 -1.88160690E-01  4.52590891E-01  1.21779443E-01
  2.55188610E-01  2.21477598E-02  0.00000000E+00  0.00000000E+00 -7.49460843E-02
  0.00000000E+00  0.00000000E+00 -1.00632942E-01  0.00000000E+00  0.00000000E+00
 -1.75349951E-02  0.00000000E+00  0.00000000E+00  3.73375489E-04  7.62515184E-03
  0.00000000E+00  0.00000000E+00 -2.91900002E-04  0.00000000E+00  2.09477782E-02
  0.00000000E+00  0.00000000E+00  1.90470933E-04  0.00000000E+00 -5.09985544E-03
  0.00000000E+00  0.00000000E+00  2.02593820E-04  0.00000000E+00 -4.09743499E-03
  0.00000000E+00  0.00000000E+00 -2.33242167E-04  0.00000000E+00  0.00000000E+00
  0.00000000E+00 -3.31072799E-03  0.00000000E+00  0.00000000E+00 -1.04055252E-03
  0.00000000E+00  0.00000000E+00  0.00000000E+00  1.51595115E-02 -1.88354892E-02
 -4.99569030E-02 -1.97726655E-03  0.00000000E+00 -1.23255829E-05  9.12516377E-04
  0.00000000E+00  1.25961783E-02 -9.30234881E-03  0.00000000E+00  7.42286913E-03
 -1.73600639E-02  8.27991442E-04  0.00000000E+00  8.69934066E-04  8.94393324E-04
  0.00000000E+00 -2.49294431E-03  0.00000000E+00  3.77146378E-03  2.23570816E-03
  0.00000000E+00  1.51595115E-02 -1.88354892E-02 -4.99569030E-02 -1.97726655E-03
  0.00000000E+00  1.23255829E-05  9.12516377E-04  0.00000000E+00 -1.25961783E-02
 -9.30234881E-03  0.00000000E+00 -7.42286913E-03 -1.73600639E-02  8.27991442E-04
  0.00000000E+00 -8.69934066E-04  8.94393324E-04  0.00000000E+00 -2.49294431E-03
  0.00000000E+00 -3.77146378E-03  2.23570816E-03  0.00000000E+00 -1.51202023E-01
  3.89432011E-01  8.79199495E-02  3.11882645E-01  1.44285404E-02  0.00000000E+00
  0.00000000E+00 -9.74314853E-02  0.00000000E+00  0.00000000E+00 -1.22667205E-01
  0.00000000E+00  0.00000000E+00 -7.08441032E-02  0.00000000E+00  0.00000000E+00
 -7.12199167E-04 -1.84630564E-03  0.00000000E+00  0.00000000E+00 -1.14600598E-02
  0.00000000E+00 -2.79492448E-03  0.00000000E+00  0.00000000E+00 -2.74900158E-02
  0.00000000E+00  4.69276758E-03  0.00000000E+00  0.00000000E+00 -2.93927824E-03
  0.00000000E+00  4.13196854E-03  0.00000000E+00  0.00000000E+00  4.45931563E-03
  0.00000000E+00  0.00000000E+00  0.00000000E+00  5.81680517E-03  0.00000000E+00
  0.00000000E+00  8.78745230E-03  0.00000000E+00  0.00000000E+00  0.00000000E+00
  8.25905331E-02 -2.12516326E-01 -6.13813290E-02 -2.10790380E-01 -1.62072556E-02
  0.00000000E+00  0.00000000E+00 -8.32676870E-02  0.00000000E+00  0.00000000E+00
 -9.76108207E-02  0.00000000E+00  0.00000000E+00 -4.10761489E-02  0.00000000E+00
  0.00000000E+00 -1.49859563E-03  2.94752200E-03  0.00000000E+00  0.00000000E+00
  2.85185009E-04  0.00000000E+00  3.81799697E-03  0.00000000E+00  0.00000000E+00
  1.09521948E-03  0.00000000E+00 -8.61258938E-05  0.00000000E+00  0.00000000E+00
  9.52808850E-04  0.00000000E+00 -8.60478713E-04  0.00000000E+00  0.00000000E+00
 -2.03149622E-04  0.00000000E+00  0.00000000E+00  0.00000000E+00  7.49879298E-04
  0.00000000E+00  0.00000000E+00 -5.16150409E-04  0.00000000E+00  0.00000000E+00
  0.00000000E+00  1.05808194E-01  1.06362002E-01 -3.01295731E-02 -1.82500820E-03
  0.00000000E+00 -9.84324281E-03  4.47465238E-03  0.00000000E+00 -3.92774072E-03
 -2.71470487E-03  0.00000000E+00  1.73477983E-02 -5.49738544E-03 -6.54961337E-04
  0.00000000E+00 -1.36491348E-03 -1.72676639E-03  0.00000000E+00 -4.45675518E-04
  0.00000000E+00  1.78865443E-03  9.71820146E-04  0.00000000E+00  1.05808194E-01
  1.06362002E-01 -3.01295731E-02 -1.82500820E-03  0.00000000E+00  9.84324281E-03
  4.47465238E-03  0.00000000E+00  3.92774072E-03 -2.71470487E-03  0.00000000E+00
 -1.73477983E-02 -5.49738544E-03 -6.54961337E-04  0.00000000E+00  1.36491348E-03
 -1.72676639E-03  0.00000000E+00 -4.45675518E-04  0.00000000E+00 -1.78865443E-03
  9.71820146E-04  0.00000000E+00  0.00000000E+00  0.00000000E+00  0.00000000E+00
  0.00000000E+00  0.00000000E+00  0.00000000E+00  2.21428297E-01  0.00000000E+00
  0.00000000E+00  3.00038199E-01  0.00000000E+00  0.00000000E+00  1.30090285E-01
  0.00000000E+00  0.00000000E+00 -7.74833571E-03  0.00000000E+00  0.00000000E+00
  0.00000000E+00 -3.53313098E-03  0.00000000E+00  0.00000000E+00  0.00000000E+00
  0.00000000E+00 -3.93640293E-02  0.00000000E+00  0.00000000E+00  0.00000000E+00
  0.00000000E+00 -4.27524989E-02  0.00000000E+00  0.00000000E+00  0.00000000E+00
  0.00000000E+00  7.42173043E-03  0.00000000E+00  0.00000000E+00  0.00000000E+00
 -1.38684886E-03  0.00000000E+00  0.00000000E+00  7.21332066E-03  0.00000000E+00
  0.00000000E+00  0.00000000E+00 -1.03532017E-03  0.00000000E+00  0.00000000E+00
  0.00000000E+00  0.00000000E+00  0.00000000E+00  0.00000000E+00  1.87413519E-01
  0.00000000E+00  0.00000000E+00  2.36423014E-01  0.00000000E+00  0.00000000E+00
  1.61943867E-01  0.00000000E+00  0.00000000E+00  2.20086887E-02  0.00000000E+00
  0.00000000E+00  0.00000000E+00 -7.32921556E-03  0.00000000E+00  0.00000000E+00
  0.00000000E+00  0.00000000E+00 -1.93605620E-02  0.00000000E+00  0.00000000E+00
  0.00000000E+00  0.00000000E+00 -1.10706275E-02  0.00000000E+00  0.00000000E+00
  0.00000000E+00  0.00000000E+00  4.48475470E-03  0.00000000E+00  0.00000000E+00
  0.00000000E+00  7.51815880E-04  0.00000000E+00  0.00000000E+00  2.53525709E-03
  0.00000000E+00  0.00000000E+00  0.00000000E+00  1.27706258E-03  1.09658512E-01
  1.15604403E-01 -3.37528306E-02  5.04838016E-03  0.00000000E+00 -7.57246886E-03
  7.55979321E-03  0.00000000E+00  1.27510449E-02  3.89775836E-03  0.00000000E+00
  1.73468595E-02  2.21010667E-03  1.57830156E-03  0.00000000E+00 -3.00584698E-03
 -3.71777490E-04  0.00000000E+00  1.95762855E-03  0.00000000E+00  3.11384231E-03
  3.46612661E-03  0.00000000E+00 -1.09658512E-01 -1.15604403E-01  3.37528306E-02
 -5.04838016E-03  0.00000000E+00 -7.57246886E-03 -7.55979321E-03  0.00000000E+00
  1.27510449E-02 -3.89775836E-03  0.00000000E+00  1.73468595E-02 -2.21010667E-03
 -1.57830156E-03  0.00000000E+00 -3.00584698E-03  3.71777490E-04  0.00000000E+00
 -1.95762855E-03  0.00000000E+00  3.11384231E-03 -3.46612661E-03  0.00000000E+00
  1.97823581E-02 -4.95807652E-02 -1.38068064E-02  8.77302731E-02 -1.84065467E-03
  0.00000000E+00  0.00000000E+00 -2.05430247E-01  0.00000000E+00  0.00000000E+00
 -2.29050182E-01  0.00000000E+00  0.00000000E+00 -8.56194421E-02  0.00000000E+00
  0.00000000E+00 -1.70680569E-03 -1.63129777E-02  0.00000000E+00  0.00000000E+00
 -5.33001329E-03  0.00000000E+00 -1.43929453E-02  0.00000000E+00  0.00000000E+00
 -6.58689093E-03  0.00000000E+00 -9.39427726E-03  0.00000000E+00  0.00000000E+00
 -9.89248868E-03  0.00000000E+00 -6.62175995E-03  0.00000000E+00  0.00000000E+00
 -1.24384769E-03  0.00000000E+00  0.00000000E+00  0.00000000E+00  9.35218184E-03
  0.00000000E+00  0.00000000E+00  6.19277474E-03  0.00000000E+00  0.00000000E+00
  0.00000000E+00 -6.35169940E-02  1.69944049E-01  5.25920602E-02  2.34582071E-01
  7.09952233E-02  0.00000000E+00  0.00000000E+00  2.86671681E-01  0.00000000E+00
  0.00000000E+00  3.52184345E-01  0.00000000E+00  0.00000000E+00  2.01832330E-01
  0.00000000E+00  0.00000000E+00  2.73222370E-03 -1.17791129E-02  0.00000000E+00
  0.00000000E+00 -3.98624522E-04  0.00000000E+00 -2.77389253E-02  0.00000000E+00
  0.00000000E+00 -1.76581519E-03  0.00000000E+00 -9.97254474E-03  0.00000000E+00
  0.00000000E+00 -1.31079082E-03  0.00000000E+00  4.48893543E-03  0.00000000E+00
  0.00000000E+00  1.13022475E-03  0.00000000E+00  0.00000000E+00  0.00000000E+00
  6.19197824E-03  0.00000000E+00  0.00000000E+00  6.63359882E-04  0.00000000E+00
  0.00000000E+00  0.00000000E+00  5.75757544E-02  7.97797473E-02 -6.88520297E-03
  1.55076649E-04  0.00000000E+00 -6.72684186E-03  1.35891579E-03  0.00000000E+00
 -1.11313241E-02  4.48564422E-04  0.00000000E+00  1.74953592E-03 -8.67017729E-03
 -1.86723830E-03  0.00000000E+00 -1.12243158E-03 -1.75492451E-03  0.00000000E+00
  3.30279359E-03  0.00000000E+00  9.39045842E-04 -2.40257606E-03  0.00000000E+00
  5.75757544E-02  7.97797473E-02 -6.88520297E-03  1.55076649E-04  0.00000000E+00
  6.72684186E-03  1.35891579E-03  0.00000000E+00  1.11313241E-02  4.48564422E-04
  0.00000000E+00 -1.74953592E-03 -8.67017729E-03 -1.86723830E-03  0.00000000E+00
  1.12243158E-03 -1.75492451E-03  0.00000000E+00  3.30279359E-03  0.00000000E+00