 Entering Gaussian System, Link 0=/home/mdsoft/gaussian/g09/g09
 Initial command:
 /home/mdsoft/gaussian/g09/l1.exe /scr/yagi/h2o-freq.25942/Gau-26103.inp -scrdir=/scr/yagi/h2o-freq.25942/
 Entering Link 1 = /home/mdsoft/gaussian/g09/l1.exe PID=     26104.
  
 Copyright (c) 1988,1990,1992,1993,1995,1998,2003,2009,2011,
            Gaussian, Inc.  All Rights Reserved.
  
 This is part of the Gaussian(R) 09 program.  It is based on
 the Gaussian(R) 03 system (copyright 2003, Gaussian, Inc.),
 the Gaussian(R) 98 system (copyright 1998, Gaussian, Inc.),
 the Gaussian(R) 94 system (copyright 1995, Gaussian, Inc.),
 the Gaussian 92(TM) system (copyright 1992, Gaussian, Inc.),
 the Gaussian 90(TM) system (copyright 1990, Gaussian, Inc.),
 the Gaussian 88(TM) system (copyright 1988, Gaussian, Inc.),
 the Gaussian 86(TM) system (copyright 1986, Carnegie Mellon
 University), and the Gaussian 82(TM) system (copyright 1983,
 Carnegie Mellon University). Gaussian is a federally registered
 trademark of Gaussian, Inc.
  
 This software contains proprietary and confidential information,
 including trade secrets, belonging to Gaussian, Inc.
  
 This software is provided under written license and may be
 used, copied, transmitted, or stored only in accord with that
 written license.
  
 The following legend is applicable only to US Government
 contracts under FAR:
  
                    RESTRICTED RIGHTS LEGEND
  
 Use, reproduction and disclosure by the US Government is
 subject to restrictions as set forth in subparagraphs (a)
 and (c) of the Commercial Computer Software - Restricted
 Rights clause in FAR 52.227-19.
  
 Gaussian, Inc.
 340 Quinnipiac St., Bldg. 40, Wallingford CT 06492
  
  
 ---------------------------------------------------------------
 Warning -- This program may not be used in any manner that
 competes with the business of Gaussian, Inc. or will provide
 assistance to any competitor of Gaussian, Inc.  The licensee
 of this program is prohibited from giving any competitor of
 Gaussian, Inc. access to this program.  By using this program,
 the user acknowledges that Gaussian, Inc. is engaged in the
 business of creating and licensing software in the field of
 computational chemistry and represents and warrants to the
 licensee that it is not a competitor of Gaussian, Inc. and that
 it will not use this program in any manner prohibited above.
 ---------------------------------------------------------------
  

 Cite this work as:
 Gaussian 09, Revision C.01,
 M. J. Frisch, G. W. Trucks, H. B. Schlegel, G. E. Scuseria, 
 M. A. Robb, J. R. Cheeseman, G. Scalmani, V. Barone, B. Mennucci, 
 G. A. Petersson, H. Nakatsuji, M. Caricato, X. Li, H. P. Hratchian, 
 A. F. Izmaylov, J. Bloino, G. Zheng, J. L. Sonnenberg, M. Hada, 
 M. Ehara, K. Toyota, R. Fukuda, J. Hasegawa, M. Ishida, T. Nakajima, 
 Y. Honda, O. Kitao, H. Nakai, T. Vreven, J. A. Montgomery, Jr., 
 J. E. Peralta, F. Ogliaro, M. Bearpark, J. J. Heyd, E. Brothers, 
 K. N. Kudin, V. N. Staroverov, T. Keith, R. Kobayashi, J. Normand, 
 K. Raghavachari, A. Rendell, J. C. Burant, S. S. Iyengar, J. Tomasi, 
 M. Cossi, N. Rega, J. M. Millam, M. Klene, J. E. Knox, J. B. Cross, 
 V. Bakken, C. Adamo, J. Jaramillo, R. Gomperts, R. E. Stratmann, 
 O. Yazyev, A. J. Austin, R. Cammi, C. Pomelli, J. W. Ochterski, 
 R. L. Martin, K. Morokuma, V. G. Zakrzewski, G. A. Voth, 
 P. Salvador, J. J. Dannenberg, S. Dapprich, A. D. Daniels, 
 O. Farkas, J. B. Foresman, J. V. Ortiz, J. Cioslowski, 
 and D. J. Fox, Gaussian, Inc., Wallingford CT, 2010.
 
 ******************************************
 Gaussian 09:  EM64L-G09RevC.01 23-Sep-2011
                 7-Mar-2016 
 ******************************************
 %NprocShared=12
 Will use up to   12 processors via shared memory.
 %chk=h2o_freq.chk
 %mem=1000MB
 -----------------------------
 #p MP2/cc-pVTZ opt freq=raman
 -----------------------------
 1/18=20,19=15,38=1/1,3;
 2/9=110,12=2,17=6,18=5,40=1/2;
 3/5=16,6=1,11=9,16=1,25=1,30=1,71=1/1,2,3;
 4//1;
 5/5=2,38=5/2;
 8/6=4,10=1/1;
 9/15=2,16=-3/6;
 10/5=1/2;
 6/7=2,8=2,9=2,10=2/1;
 7/12=2/1,2,3,16;
 1/18=20,19=15/3(2);
 2/9=110/2;
 99//99;
 2/9=110/2;
 3/5=16,6=1,11=9,16=1,25=1,30=1,71=1/1,2,3;
 4/5=5,16=3/1;
 5/5=2,38=5/2;
 8/6=4,10=1/1;
 9/15=2,16=-3/6;
 10/5=1/2;
 7/12=2/1,2,3,16;
 1/18=20,19=15/3(-8);
 2/9=110/2;
 6/7=2,8=2,9=2,10=2/1;
 99//99;
 Leave Link    1 at Mon Mar  7 13:01:19 2016, MaxMem=  131072000 cpu:       0.6
 (Enter /home/mdsoft/gaussian/g09/l101.exe)
 ----------------------
 H2O MP2/cc-pVTZ (Freq)
 ----------------------
 Charge =  0 Multiplicity = 1
 Symbolic Z-Matrix:
 O                     0.        0.        0.6803 
 H                    -0.93586   0.       -0.61098 
 H                     0.93586   0.       -0.61098 
 
 NAtoms=      3 NQM=        0 NQMF=       0 NMMI=      3 NMMIF=      0
                NMic=       0 NMicF=      0.
                    Isotopes and Nuclear Properties:
 (Nuclear quadrupole moments (NQMom) in fm**2, nuclear magnetic moments (NMagM)
  in nuclear magnetons)

  Atom         1           2           3
 IAtWgt=          16           1           1
 AtmWgt=  15.9949146   1.0078250   1.0078250
 NucSpn=           0           1           1
 AtZEff=   0.0000000   0.0000000   0.0000000
 NQMom=    0.0000000   0.0000000   0.0000000
 NMagM=    0.0000000   2.7928460   2.7928460
 Leave Link  101 at Mon Mar  7 13:01:19 2016, MaxMem=  131072000 cpu:       0.7
 (Enter /home/mdsoft/gaussian/g09/l103.exe)

 GradGradGradGradGradGradGradGradGradGradGradGradGradGradGradGradGradGrad
 Berny optimization.
 Initialization pass.
                           ----------------------------
                           !    Initial Parameters    !
                           ! (Angstroms and Degrees)  !
 --------------------------                            --------------------------
 ! Name  Definition              Value          Derivative Info.                !
 --------------------------------------------------------------------------------
 ! R1    R(1,2)                  1.5948         estimate D2E/DX2                !
 ! R2    R(1,3)                  1.5948         estimate D2E/DX2                !
 ! A1    A(2,1,3)               71.8655         estimate D2E/DX2                !
 --------------------------------------------------------------------------------
 Trust Radius=3.00D-01 FncErr=1.00D-07 GrdErr=1.00D-07
 Number of steps in this run=     20 maximum allowed number of steps=    100.
 GradGradGradGradGradGradGradGradGradGradGradGradGradGradGradGradGradGrad

 Leave Link  103 at Mon Mar  7 13:01:20 2016, MaxMem=  131072000 cpu:       0.0
 (Enter /home/mdsoft/gaussian/g09/l202.exe)
                          Input orientation:                          
 ---------------------------------------------------------------------
 Center     Atomic      Atomic             Coordinates (Angstroms)
 Number     Number       Type             X           Y           Z
 ---------------------------------------------------------------------
      1          8           0        0.000000    0.000000    0.680303
      2          1           0       -0.935861    0.000000   -0.610982
      3          1           0        0.935861    0.000000   -0.610982
 ---------------------------------------------------------------------
                    Distance matrix (angstroms):
                    1          2          3
     1  O    0.000000
     2  H    1.594758   0.000000
     3  H    1.594758   1.871721   0.000000
 Stoichiometry    H2O
 Framework group  C2V[C2(O),SGV(H2)]
 Deg. of freedom     2
 Full point group                 C2V     NOp   4
 Largest Abelian subgroup         C2V     NOp   4
 Largest concise Abelian subgroup C2      NOp   2
                         Standard orientation:                         
 ---------------------------------------------------------------------
 Center     Atomic      Atomic             Coordinates (Angstroms)
 Number     Number       Type             X           Y           Z
 ---------------------------------------------------------------------
      1          8           0        0.000000    0.000000    0.258257
      2          1           0        0.000000    0.935861   -1.033028
      3          1           0        0.000000   -0.935861   -1.033028
 ---------------------------------------------------------------------
 Rotational constants (GHZ):    286.2726024    169.3180536    106.3918217
 Leave Link  202 at Mon Mar  7 13:01:20 2016, MaxMem=  131072000 cpu:       0.3
 (Enter /home/mdsoft/gaussian/g09/l301.exe)
 Standard basis: CC-pVTZ (5D, 7F)
 Ernie: Thresh=  0.10000D-02 Tol=  0.10000D-05 Strict=F.
 Ernie:  3 primitive shells out of 42 were deleted.
 There are    23 symmetry adapted basis functions of A1  symmetry.
 There are     7 symmetry adapted basis functions of A2  symmetry.
 There are    11 symmetry adapted basis functions of B1  symmetry.
 There are    17 symmetry adapted basis functions of B2  symmetry.
 Integral buffers will be    131072 words long.
 Raffenetti 1 integral format.
 Two-electron integral symmetry is turned on.
    58 basis functions,    86 primitive gaussians,    65 cartesian basis functions
     5 alpha electrons        5 beta electrons
       nuclear repulsion energy         5.5918898057 Hartrees.
 IExCor=    0 DFT=F Ex=HF Corr=None ExCW=0 ScaHFX=  1.000000
 ScaDFX=  1.000000  1.000000  1.000000  1.000000 ScalE2=  1.000000  1.000000
 IRadAn=      0 IRanWt=     -1 IRanGd=            0 ICorTp=0
 NAtoms=    3 NActive=    3 NUniq=    2 SFac= 2.25D+00 NAtFMM=   60 NAOKFM=F Big=F
 Leave Link  301 at Mon Mar  7 13:01:20 2016, MaxMem=  131072000 cpu:       1.0
 (Enter /home/mdsoft/gaussian/g09/l302.exe)
 NPDir=0 NMtPBC=     1 NCelOv=     1 NCel=       1 NClECP=     1 NCelD=      1
         NCelK=      1 NCelE2=     1 NClLst=     1 CellRange=     0.0.
 One-electron integrals computed using PRISM.
 One-electron integral symmetry used in STVInt
 NBasis=    58 RedAO= T  NBF=    23     7    11    17
 NBsUse=    58 1.00D-06 NBFU=    23     7    11    17
 Leave Link  302 at Mon Mar  7 13:01:21 2016, MaxMem=  131072000 cpu:       1.7
 (Enter /home/mdsoft/gaussian/g09/l303.exe)
 DipDrv:  MaxL=1.
 Leave Link  303 at Mon Mar  7 13:01:21 2016, MaxMem=  131072000 cpu:       0.5
 (Enter /home/mdsoft/gaussian/g09/l401.exe)
 Harris functional with IExCor=  205 diagonalized for initial guess.
 ExpMin= 1.03D-01 ExpMax= 1.53D+04 ExpMxC= 5.22D+02 IAcc=1 IRadAn=         1 AccDes= 0.00D+00
 HarFok:  IExCor=  205 AccDes= 0.00D+00 IRadAn=         1 IDoV= 1
 ScaDFX=  1.000000  1.000000  1.000000  1.000000
 FoFCou: FMM=F IPFlag=           0 FMFlag=      100000 FMFlg1=           0
         NFxFlg=           0 DoJE=T BraDBF=F KetDBF=T FulRan=T
         Omega=  0.000000  0.000000  1.000000  0.000000  0.000000 ICntrl=     500 IOpCl=  0
         NMat0=    1 NMatS0=    1 NMatT0=    0 NMatD0=    1 NMtDS0=    0 NMtDT0=    0
         I1Cent=           4 NGrid=           0.
 Petite list used in FoFCou.
 Harris En= -75.9237168644419    
 Initial guess orbital symmetries:
       Occupied  (A1) (A1) (A1) (B2) (B1)
       Virtual   (A1) (B2) (A1) (B2) (B1) (A1) (A1) (B2) (A2) (B1)
                 (A1) (B2) (B2) (A1) (A2) (A1) (B1) (B2) (A1) (A1)
                 (B2) (A1) (A1) (B1) (B2) (A2) (A1) (B2) (A2) (B1)
                 (B2) (B1) (B1) (A1) (A2) (B2) (A1) (B2) (B2) (A1)
                 (B1) (B2) (B1) (A1) (A2) (A1) (B2) (A2) (A1) (B1)
                 (A1) (B2) (A1)
 The electronic state of the initial guess is 1-A1.
 Leave Link  401 at Mon Mar  7 13:01:22 2016, MaxMem=  131072000 cpu:       2.7
 (Enter /home/mdsoft/gaussian/g09/l502.exe)
 Closed shell SCF:
 Requested convergence on RMS density matrix=1.00D-08 within 128 cycles.
 Requested convergence on MAX density matrix=1.00D-06.
 Requested convergence on             energy=1.00D-06.
 No special actions if energy rises.
 Using DIIS extrapolation, IDIIS=  1040.
 Integral symmetry usage will be decided dynamically.
 Keep R1 ints in memory in canonical form, NReq=4273800.
 IEnd=       32201 IEndB=       32201 NGot=   131072000 MDV=   128759117
 LenX=   128759117 LenY=   128754451
 Symmetry not used in FoFDir.
 MinBra= 0 MaxBra= 3 Meth= 1.
 IRaf=       0 NMat=   1 IRICut=       1 DoRegI=T DoRafI=F ISym2E= 0 JSym2E=0.

 Cycle   1  Pass 1  IDiag  1:
 E= -75.6153267929133    
 DIIS: error= 8.78D-02 at cycle   1 NSaved=   1.
 NSaved= 1 IEnMin= 1 EnMin= -75.6153267929133     IErMin= 1 ErrMin= 8.78D-02
 ErrMax= 8.78D-02 EMaxC= 1.00D-01 BMatC= 2.05D-01 BMatP= 2.05D-01
 IDIUse=3 WtCom= 1.22D-01 WtEn= 8.78D-01
 Coeff-Com:  0.100D+01
 Coeff-En:   0.100D+01
 Coeff:      0.100D+01
 Gap=     0.294 Goal=   None    Shift=    0.000
 GapD=    0.294 DampG=1.000 DampE=0.500 DampFc=0.5000 IDamp=-1.
 Damping current iteration by 5.00D-01
 RMSDP=6.58D-03 MaxDP=7.87D-02              OVMax= 3.18D-01

 Cycle   2  Pass 1  IDiag  1:
 E= -75.6750071341745     Delta-E=       -0.059680341261 Rises=F Damp=T
 DIIS: error= 3.22D-02 at cycle   2 NSaved=   2.
 NSaved= 2 IEnMin= 2 EnMin= -75.6750071341745     IErMin= 2 ErrMin= 3.22D-02
 ErrMax= 3.22D-02 EMaxC= 1.00D-01 BMatC= 3.16D-02 BMatP= 2.05D-01
 IDIUse=3 WtCom= 6.78D-01 WtEn= 3.22D-01
 Coeff-Com:  0.575D-01 0.942D+00
 Coeff-En:   0.154D+00 0.846D+00
 Coeff:      0.886D-01 0.911D+00
 Gap=     0.476 Goal=   None    Shift=    0.000
 RMSDP=1.43D-03 MaxDP=3.40D-02 DE=-5.97D-02 OVMax= 1.80D-01

 Cycle   3  Pass 1  IDiag  1:
 E= -75.7625657817173     Delta-E=       -0.087558647543 Rises=F Damp=F
 DIIS: error= 7.14D-03 at cycle   3 NSaved=   3.
 NSaved= 3 IEnMin= 3 EnMin= -75.7625657817173     IErMin= 3 ErrMin= 7.14D-03
 ErrMax= 7.14D-03 EMaxC= 1.00D-01 BMatC= 1.01D-03 BMatP= 3.16D-02
 IDIUse=3 WtCom= 9.29D-01 WtEn= 7.14D-02
 Coeff-Com: -0.398D-01-0.254D-01 0.107D+01
 Coeff-En:   0.000D+00 0.000D+00 0.100D+01
 Coeff:     -0.369D-01-0.236D-01 0.106D+01
 Gap=     0.510 Goal=   None    Shift=    0.000
 RMSDP=4.79D-04 MaxDP=7.60D-03 DE=-8.76D-02 OVMax= 3.23D-02

 Cycle   4  Pass 1  IDiag  1:
 E= -75.7649538190614     Delta-E=       -0.002388037344 Rises=F Damp=F
 DIIS: error= 4.50D-03 at cycle   4 NSaved=   4.
 NSaved= 4 IEnMin= 4 EnMin= -75.7649538190614     IErMin= 4 ErrMin= 4.50D-03
 ErrMax= 4.50D-03 EMaxC= 1.00D-01 BMatC= 2.58D-04 BMatP= 1.01D-03
 IDIUse=3 WtCom= 9.55D-01 WtEn= 4.50D-02
 Coeff-Com:  0.509D-01-0.612D-01-0.572D+00 0.158D+01
 Coeff-En:   0.000D+00 0.000D+00 0.000D+00 0.100D+01
 Coeff:      0.486D-01-0.585D-01-0.546D+00 0.156D+01
 Gap=     0.520 Goal=   None    Shift=    0.000
 RMSDP=3.78D-04 MaxDP=7.14D-03 DE=-2.39D-03 OVMax= 1.89D-02

 Cycle   5  Pass 1  IDiag  1:
 E= -75.7657910418641     Delta-E=       -0.000837222803 Rises=F Damp=F
 DIIS: error= 1.46D-03 at cycle   5 NSaved=   5.
 NSaved= 5 IEnMin= 5 EnMin= -75.7657910418641     IErMin= 5 ErrMin= 1.46D-03
 ErrMax= 1.46D-03 EMaxC= 1.00D-01 BMatC= 2.90D-05 BMatP= 2.58D-04
 IDIUse=3 WtCom= 9.85D-01 WtEn= 1.46D-02
 Coeff-Com: -0.177D-01 0.272D-01 0.156D+00-0.604D+00 0.144D+01
 Coeff-En:   0.000D+00 0.000D+00 0.000D+00 0.000D+00 0.100D+01
 Coeff:     -0.174D-01 0.268D-01 0.154D+00-0.595D+00 0.143D+01
 Gap=     0.525 Goal=   None    Shift=    0.000
 RMSDP=1.83D-04 MaxDP=2.34D-03 DE=-8.37D-04 OVMax= 9.95D-03

 Cycle   6  Pass 1  IDiag  1:
 E= -75.7660065617062     Delta-E=       -0.000215519842 Rises=F Damp=F
 DIIS: error= 9.21D-04 at cycle   6 NSaved=   6.
 NSaved= 6 IEnMin= 6 EnMin= -75.7660065617062     IErMin= 6 ErrMin= 9.21D-04
 ErrMax= 9.21D-04 EMaxC= 1.00D-01 BMatC= 1.17D-05 BMatP= 2.90D-05
 IDIUse=3 WtCom= 9.91D-01 WtEn= 9.21D-03
 Coeff-Com: -0.909D-02 0.871D-02 0.934D-01-0.176D+00-0.105D+01 0.214D+01
 Coeff-En:   0.000D+00 0.000D+00 0.000D+00 0.000D+00 0.000D+00 0.100D+01
 Coeff:     -0.901D-02 0.863D-02 0.925D-01-0.174D+00-0.104D+01 0.213D+01
 Gap=     0.530 Goal=   None    Shift=    0.000
 RMSDP=2.32D-04 MaxDP=2.89D-03 DE=-2.16D-04 OVMax= 1.23D-02

 Cycle   7  Pass 1  IDiag  1:
 E= -75.7661400174541     Delta-E=       -0.000133455748 Rises=F Damp=F
 DIIS: error= 3.19D-04 at cycle   7 NSaved=   7.
 NSaved= 7 IEnMin= 7 EnMin= -75.7661400174541     IErMin= 7 ErrMin= 3.19D-04
 ErrMax= 3.19D-04 EMaxC= 1.00D-01 BMatC= 1.08D-06 BMatP= 1.17D-05
 IDIUse=3 WtCom= 9.97D-01 WtEn= 3.19D-03
 Coeff-Com:  0.560D-02-0.666D-02-0.532D-01 0.147D+00 0.219D+00-0.951D+00
 Coeff-Com:  0.164D+01
 Coeff-En:   0.000D+00 0.000D+00 0.000D+00 0.000D+00 0.000D+00 0.000D+00
 Coeff-En:   0.100D+01
 Coeff:      0.558D-02-0.664D-02-0.530D-01 0.147D+00 0.218D+00-0.948D+00
 Coeff:      0.164D+01
 Gap=     0.532 Goal=   None    Shift=    0.000
 RMSDP=7.99D-05 MaxDP=1.09D-03 DE=-1.33D-04 OVMax= 4.30D-03

 Cycle   8  Pass 1  IDiag  1:
 E= -75.7661505594423     Delta-E=       -0.000010541988 Rises=F Damp=F
 DIIS: error= 3.82D-05 at cycle   8 NSaved=   8.
 NSaved= 8 IEnMin= 8 EnMin= -75.7661505594423     IErMin= 8 ErrMin= 3.82D-05
 ErrMax= 3.82D-05 EMaxC= 1.00D-01 BMatC= 2.83D-08 BMatP= 1.08D-06
 IDIUse=1 WtCom= 1.00D+00 WtEn= 0.00D+00
 Coeff-Com: -0.124D-02 0.172D-02 0.116D-01-0.350D-01 0.708D-01-0.177D-01
 Coeff-Com: -0.211D+00 0.118D+01
 Coeff:     -0.124D-02 0.172D-02 0.116D-01-0.350D-01 0.708D-01-0.177D-01
 Coeff:     -0.211D+00 0.118D+01
 Gap=     0.532 Goal=   None    Shift=    0.000
 RMSDP=3.92D-06 MaxDP=8.55D-05 DE=-1.05D-05 OVMax= 1.82D-04

 Cycle   9  Pass 1  IDiag  1:
 E= -75.7661506121538     Delta-E=       -0.000000052712 Rises=F Damp=F
 DIIS: error= 8.59D-06 at cycle   9 NSaved=   9.
 NSaved= 9 IEnMin= 9 EnMin= -75.7661506121538     IErMin= 9 ErrMin= 8.59D-06
 ErrMax= 8.59D-06 EMaxC= 1.00D-01 BMatC= 1.40D-09 BMatP= 2.83D-08
 IDIUse=1 WtCom= 1.00D+00 WtEn= 0.00D+00
 Coeff-Com:  0.677D-04-0.657D-04-0.146D-02 0.294D-02-0.101D-01 0.493D-02
 Coeff-Com:  0.277D-01-0.286D+00 0.126D+01
 Coeff:      0.677D-04-0.657D-04-0.146D-02 0.294D-02-0.101D-01 0.493D-02
 Coeff:      0.277D-01-0.286D+00 0.126D+01
 Gap=     0.532 Goal=   None    Shift=    0.000
 RMSDP=1.12D-06 MaxDP=1.55D-05 DE=-5.27D-08 OVMax= 7.01D-05

 Cycle  10  Pass 1  IDiag  1:
 E= -75.7661506151733     Delta-E=       -0.000000003019 Rises=F Damp=F
 DIIS: error= 7.17D-07 at cycle  10 NSaved=  10.
 NSaved=10 IEnMin=10 EnMin= -75.7661506151733     IErMin=10 ErrMin= 7.17D-07
 ErrMax= 7.17D-07 EMaxC= 1.00D-01 BMatC= 1.04D-11 BMatP= 1.40D-09
 IDIUse=1 WtCom= 1.00D+00 WtEn= 0.00D+00
 Coeff-Com: -0.822D-05 0.617D-05 0.250D-03-0.513D-03-0.451D-04 0.183D-02
 Coeff-Com: -0.320D-02 0.187D-01-0.145D+00 0.113D+01
 Coeff:     -0.822D-05 0.617D-05 0.250D-03-0.513D-03-0.451D-04 0.183D-02
 Coeff:     -0.320D-02 0.187D-01-0.145D+00 0.113D+01
 Gap=     0.532 Goal=   None    Shift=    0.000
 RMSDP=5.64D-08 MaxDP=9.47D-07 DE=-3.02D-09 OVMax= 3.59D-06

 Cycle  11  Pass 1  IDiag  1:
 E= -75.7661506151883     Delta-E=       -0.000000000015 Rises=F Damp=F
 DIIS: error= 1.14D-07 at cycle  11 NSaved=  11.
 NSaved=11 IEnMin=11 EnMin= -75.7661506151883     IErMin=11 ErrMin= 1.14D-07
 ErrMax= 1.14D-07 EMaxC= 1.00D-01 BMatC= 3.41D-13 BMatP= 1.04D-11
 IDIUse=1 WtCom= 1.00D+00 WtEn= 0.00D+00
 Coeff-Com: -0.143D-05 0.298D-05-0.230D-04 0.371D-04 0.225D-03-0.537D-03
 Coeff-Com:  0.180D-03 0.505D-03 0.112D-01-0.263D+00 0.125D+01
 Coeff:     -0.143D-05 0.298D-05-0.230D-04 0.371D-04 0.225D-03-0.537D-03
 Coeff:      0.180D-03 0.505D-03 0.112D-01-0.263D+00 0.125D+01
 Gap=     0.532 Goal=   None    Shift=    0.000
 RMSDP=1.16D-08 MaxDP=1.29D-07 DE=-1.50D-11 OVMax= 5.40D-07

 Cycle  12  Pass 1  IDiag  1:
 E= -75.7661506151886     Delta-E=        0.000000000000 Rises=F Damp=F
 DIIS: error= 1.15D-08 at cycle  12 NSaved=  12.
 NSaved=12 IEnMin=12 EnMin= -75.7661506151886     IErMin=12 ErrMin= 1.15D-08
 ErrMax= 1.15D-08 EMaxC= 1.00D-01 BMatC= 4.37D-15 BMatP= 3.41D-13
 IDIUse=1 WtCom= 1.00D+00 WtEn= 0.00D+00
 Coeff-Com: -0.811D-07-0.136D-07 0.667D-05-0.145D-04-0.296D-06 0.551D-04
 Coeff-Com: -0.864D-04 0.511D-03-0.388D-02 0.435D-01-0.228D+00 0.119D+01
 Coeff:     -0.811D-07-0.136D-07 0.667D-05-0.145D-04-0.296D-06 0.551D-04
 Coeff:     -0.864D-04 0.511D-03-0.388D-02 0.435D-01-0.228D+00 0.119D+01
 Gap=     0.532 Goal=   None    Shift=    0.000
 RMSDP=9.99D-10 MaxDP=1.71D-08 DE=-2.84D-13 OVMax= 5.43D-08

 SCF Done:  E(RHF) =  -75.7661506152     A.U. after   12 cycles
             Convg  =    0.9986D-09             -V/T =  2.0092
 KE= 7.507785090328D+01 PE=-1.911005284391D+02 EE= 3.466463711491D+01
 Leave Link  502 at Mon Mar  7 13:01:23 2016, MaxMem=  131072000 cpu:       4.2
 (Enter /home/mdsoft/gaussian/g09/l801.exe)
 ExpMin= 1.03D-01 ExpMax= 1.53D+04 ExpMxC= 5.22D+02 IAcc=3 IRadAn=         5 AccDes= 0.00D+00
 HarFok:  IExCor=  205 AccDes= 0.00D+00 IRadAn=         5 IDoV=-2
 ScaDFX=  1.000000  1.000000  1.000000  1.000000
 Largest valence mixing into a core orbital is  1.54D-04
 Largest core mixing into a valence orbital is  3.83D-05
 Range of M.O.s used for correlation:     2    58
 NBasis=    58 NAE=     5 NBE=     5 NFC=     1 NFV=     0
 NROrb=     57 NOA=     4 NOB=     4 NVA=    53 NVB=    53
 Leave Link  801 at Mon Mar  7 13:01:23 2016, MaxMem=  131072000 cpu:       0.8
 (Enter /home/mdsoft/gaussian/g09/l906.exe)
 Frozen-core derivative calculation, NFC=   1 NFV=   0.
 FulOut=F Deriv=T AODrv=T NAtomX=     3
   MMem=        1324  MDisk=           4 MDiskD=           4
  W3Min=       18850 MinDsk=      107395 NBas6D=          65
 NBas2D=        2271    NTT=        2145    LW2=     3500000
    MDV=   131019128 MDiskM=        9924 NBas2p=        1521
 Fully direct method using O(ONN) memory.
 IMap=   1   2   3   4   5
 JobTyp=1 Pass  1:  I=   2 to   4 NPSUse= 12 ParTrn=T ParDer=T DoDerP=T.
 JobTyp=1 Pass  2:  I=   5 to   5 NPSUse= 12 ParTrn=T ParDer=T DoDerP=T.
 Spin components of T(2) and E(2):
     alpha-alpha T2 =       0.1402020051D-01 E2=     -0.3664862710D-01
     alpha-beta  T2 =       0.9994563488D-01 E2=     -0.2410956028D+00
     beta-beta   T2 =       0.1402020051D-01 E2=     -0.3664862710D-01
 The integrals were generated   2 times.
 ANorm=    0.1062066870D+01
 E2 =    -0.3143928570D+00 EUMP2 =    -0.76080543472190D+02
 Leave Link  906 at Mon Mar  7 13:01:24 2016, MaxMem=  131072000 cpu:       3.9
 (Enter /home/mdsoft/gaussian/g09/l1002.exe)
 Minotr:  Closed shell wavefunction.
          Computing MP2/KS-MP2 derivatives.
          Using Z-Vector for PSCF gradient.
          Skipping F1 and S1 gradient terms here.
          IDoAtm=111
          Frozen-core window.
          Direct CPHF calculation.
          Differentiating once with respect to electric field.
                with respect to dipole field.
          Differentiating once with respect to nuclear coordinates.
          Using symmetry in CPHF.
          Requested convergence is 1.0D-10 RMS, and 1.0D-09 maximum.
          NewPWx=F KeepS1=T KeepF1=T KeepIn=T MapXYZ=F SortEE=F KeepMc=T.
          MDV=     131071966 using IRadAn=       0.
          Keep R1 ints in memory in canonical form, NReq=4242450.
 Symmetry not used in FoFDir.
 MinBra= 0 MaxBra= 3 Meth= 1.
 IRaf=       0 NMat=   1 IRICut=       1 DoRegI=T DoRafI=F ISym2E= 0 JSym2E=0.
          Solving linear equations separately, MaxMat=       0.
          There are     1 degrees of freedom in the 1st order CPHF.  IDoFFX=0.
 LinEq1:  Iter=  0 NonCon=     1 RMS=1.78D-02 Max=1.76D-01
 AX will form     1 AO Fock derivatives at one time.
 LinEq1:  Iter=  1 NonCon=     1 RMS=5.28D-03 Max=4.13D-02
 LinEq1:  Iter=  2 NonCon=     1 RMS=4.37D-03 Max=5.28D-02
 LinEq1:  Iter=  3 NonCon=     1 RMS=1.30D-03 Max=9.82D-03
 LinEq1:  Iter=  4 NonCon=     1 RMS=2.25D-04 Max=1.46D-03
 LinEq1:  Iter=  5 NonCon=     1 RMS=4.25D-05 Max=3.68D-04
 LinEq1:  Iter=  6 NonCon=     1 RMS=4.73D-06 Max=2.89D-05
 LinEq1:  Iter=  7 NonCon=     1 RMS=4.39D-07 Max=2.81D-06
 LinEq1:  Iter=  8 NonCon=     1 RMS=2.86D-08 Max=1.84D-07
 LinEq1:  Iter=  9 NonCon=     1 RMS=2.40D-09 Max=1.45D-08
 LinEq1:  Iter= 10 NonCon=     1 RMS=1.60D-10 Max=1.09D-09
 LinEq1:  Iter= 11 NonCon=     0 RMS=1.14D-11 Max=8.20D-11
 Linear equations converged to 1.000D-10 1.000D-09 after    11 iterations.
 End of Minotr Frequency-dependent properties file   721 does not exist.
 End of Minotr Frequency-dependent properties file   722 does not exist.
 Leave Link 1002 at Mon Mar  7 13:01:24 2016, MaxMem=  131072000 cpu:       3.5
 (Enter /home/mdsoft/gaussian/g09/l601.exe)
 Copying SCF densities to generalized density rwf, IOpCl= 0 IROHF=0.

 **********************************************************************

            Population analysis using the SCF density.

 **********************************************************************

 Orbital symmetries:
       Occupied  (A1) (A1) (B1) (B2) (A1)
       Virtual   (A1) (B2) (B2) (A1) (A1) (B1) (A1) (A2) (B2) (B1)
                 (B2) (A1) (B2) (A1) (A1) (A2) (B1) (B2) (A1) (A1)
                 (B2) (A1) (B1) (A1) (B2) (A2) (A2) (B1) (B2) (A1)
                 (B2) (B1) (A1) (A2) (B2) (A1) (B1) (B2) (B2) (A1)
                 (B1) (B2) (A1) (B1) (A2) (A1) (B2) (A2) (A1) (B1)
                 (A1) (B2) (A1)
 The electronic state is 1-A1.
 Alpha  occ. eigenvalues --  -20.64349  -1.21614  -0.50907  -0.48942  -0.48858
 Alpha virt. eigenvalues --    0.04300   0.04577   0.38419   0.39887   0.64882
 Alpha virt. eigenvalues --    0.65646   0.77170   0.82622   0.85224   0.90296
 Alpha virt. eigenvalues --    0.99142   0.99699   1.19051   1.43080   1.79686
 Alpha virt. eigenvalues --    1.80029   1.81913   2.11912   2.12361   2.56298
 Alpha virt. eigenvalues --    2.73777   3.27248   3.32896   3.41649   3.44952
 Alpha virt. eigenvalues --    3.45262   3.48683   3.53805   3.54468   3.54863
 Alpha virt. eigenvalues --    3.64477   3.85948   3.89361   3.92927   4.05880
 Alpha virt. eigenvalues --    4.10328   4.11234   4.39402   4.68860   4.84293
 Alpha virt. eigenvalues --    5.58031   5.62611   5.65240   5.66249   5.67664
 Alpha virt. eigenvalues --    5.89522   5.99254   6.78299   6.81329   6.83289
 Alpha virt. eigenvalues --    7.10467   7.41343   8.54608
          Condensed to atoms (all electrons):
              1          2          3
     1  O    8.038888   0.187919   0.187919
     2  H    0.187919   0.567955   0.036763
     3  H    0.187919   0.036763   0.567955
 Mulliken atomic charges:
              1
     1  O   -0.414726
     2  H    0.207363
     3  H    0.207363
 Sum of Mulliken atomic charges =   0.00000
 Mulliken charges with hydrogens summed into heavy atoms:
              1
     1  O    0.000000
 Sum of Mulliken charges with hydrogens summed into heavy atoms =   0.00000
 Electronic spatial extent (au):  <R**2>=             29.1862
 Charge=              0.0000 electrons
 Dipole moment (field-independent basis, Debye):
    X=              0.0000    Y=              0.0000    Z=             -2.6747  Tot=              2.6747
 Quadrupole moment (field-independent basis, Debye-Ang):
   XX=             -8.4525   YY=             -5.2468   ZZ=             -4.3291
   XY=              0.0000   XZ=              0.0000   YZ=              0.0000
 Traceless Quadrupole moment (field-independent basis, Debye-Ang):
   XX=             -2.4430   YY=              0.7626   ZZ=              1.6804
   XY=              0.0000   XZ=              0.0000   YZ=              0.0000
 Octapole moment (field-independent basis, Debye-Ang**2):
  XXX=              0.0000  YYY=              0.0000  ZZZ=             -1.4786  XYY=              0.0000
  XXY=              0.0000  XXZ=              0.5345  XZZ=              0.0000  YZZ=              0.0000
  YYZ=             -2.8396  XYZ=              0.0000
 Hexadecapole moment (field-independent basis, Debye-Ang**3):
 XXXX=             -7.4493 YYYY=            -13.0424 ZZZZ=            -15.3788 XXXY=              0.0000
 XXXZ=              0.0000 YYYX=              0.0000 YYYZ=              0.0000 ZZZX=              0.0000
 ZZZY=              0.0000 XXYY=             -3.9886 XXZZ=             -4.6314 YYZZ=             -1.9201
 XXYZ=              0.0000 YYXZ=              0.0000 ZZXY=              0.0000
 N-N= 5.591889805714D+00 E-N=-1.911005280585D+02  KE= 7.507785090328D+01
 Symmetry A1   KE= 6.679947333356D+01
 Symmetry A2   KE= 9.151212996381D-35
 Symmetry B1   KE= 4.830341662654D+00
 Symmetry B2   KE= 3.448035907066D+00
 No NMR shielding tensors so no spin-rotation constants.
 Leave Link  601 at Mon Mar  7 13:01:25 2016, MaxMem=  131072000 cpu:       2.2
 (Enter /home/mdsoft/gaussian/g09/l701.exe)
 Compute integral first derivatives.
 ... and contract with generalized density number  2.
 Leave Link  701 at Mon Mar  7 13:01:25 2016, MaxMem=  131072000 cpu:       3.2
 (Enter /home/mdsoft/gaussian/g09/l702.exe)
 L702 exits ... SP integral derivatives will be done elsewhere.
 Leave Link  702 at Mon Mar  7 13:01:26 2016, MaxMem=  131072000 cpu:       0.1
 (Enter /home/mdsoft/gaussian/g09/l703.exe)
 Compute integral first derivatives, UseDBF=F ICtDFT=           0.
 Integral derivatives from FoFDir, PRISM(SPDF).
 Calling FoFJK, ICntrl=      2127 FMM=F ISym2X=1 I1Cent= 0 IOpClX= 0 NMat=1 NMatS=1 NMatT=0.
 FoFCou: FMM=F IPFlag=           0 FMFlag=      100000 FMFlg1=         800
         NFxFlg=           0 DoJE=F BraDBF=F KetDBF=F FulRan=T
         Omega=  0.000000  0.000000  1.000000  0.000000  0.000000 ICntrl=    2127 IOpCl=  0
         NMat0=    1 NMatS0=    1 NMatT0=    0 NMatD0=    1 NMtDS0=    0 NMtDT0=    0
         I1Cent=           0 NGrid=           0.
 Petite list used in FoFCou.
 Leave Link  703 at Mon Mar  7 13:01:26 2016, MaxMem=  131072000 cpu:       4.8
 (Enter /home/mdsoft/gaussian/g09/l716.exe)
 Dipole        =-4.84417481D-17 4.44089210D-16-1.08791641D+00
 ***** Axes restored to original set *****
 -------------------------------------------------------------------
 Center     Atomic                   Forces (Hartrees/Bohr)
 Number     Number              X              Y              Z
 -------------------------------------------------------------------
      1        8           0.000000000    0.000000000   -0.203170561
      2        1           0.046529888    0.000000000    0.101585280
      3        1          -0.046529888    0.000000000    0.101585280
 -------------------------------------------------------------------
 Cartesian Forces:  Max     0.203170561 RMS     0.085795284
 Leave Link  716 at Mon Mar  7 13:01:27 2016, MaxMem=  131072000 cpu:       0.8
 (Enter /home/mdsoft/gaussian/g09/l103.exe)

 GradGradGradGradGradGradGradGradGradGradGradGradGradGradGradGradGradGrad
 Berny optimization.
 Internal  Forces:  Max     0.109559617 RMS     0.097258679
 Search for a local minimum.
 Step number   1 out of a maximum of   20
 All quantities printed in internal units (Hartrees-Bohrs-Radians)
 RMS Force = .97259D-01 SwitMx=.10000D-02 MixMth= 1
 Mixed Optimization -- RFO/linear search
 Second derivative matrix not updated -- first step.
 The second derivative matrix:
                          R1        R2        A1
           R1           0.09196
           R2           0.00000   0.09196
           A1           0.00000   0.00000   0.16000
 ITU=  0
     Eigenvalues ---    0.09196   0.09196   0.16000
 RFO step:  Lambda=-1.25632331D-01 EMin= 9.19588951D-02
 Linear search not attempted -- first point.
 Maximum step size (   0.300) exceeded in Quadratic search.
    -- Step size scaled by   0.401
 Iteration  1 RMS(Cart)=  0.11505012 RMS(Int)=  0.00567640
 Iteration  2 RMS(Cart)=  0.00853828 RMS(Int)=  0.00001405
 Iteration  3 RMS(Cart)=  0.00001096 RMS(Int)=  0.00000000
 Iteration  4 RMS(Cart)=  0.00000000 RMS(Int)=  0.00000000
 ClnCor:  largest displacement from symmetrization is 1.42D-15 for atom     3.
 Variable       Old X    -DE/DX   Delta X   Delta X   Delta X     New X
                                 (Linear)    (Quad)   (Total)
    R1        3.01366  -0.10956   0.00000  -0.20174  -0.20174   2.81191
    R2        3.01366  -0.10956   0.00000  -0.20174  -0.20174   2.81191
    A1        1.25429   0.06611   0.00000   0.09274   0.09274   1.34703
         Item               Value     Threshold  Converged?
 Maximum Force            0.109560     0.000450     NO 
 RMS     Force            0.097259     0.000300     NO 
 Maximum Displacement     0.161526     0.001800     NO 
 RMS     Displacement     0.114838     0.001200     NO 
 Predicted change in Energy=-4.590618D-02
 GradGradGradGradGradGradGradGradGradGradGradGradGradGradGradGradGradGrad

 Leave Link  103 at Mon Mar  7 13:01:27 2016, MaxMem=  131072000 cpu:       0.6
 (Enter /home/mdsoft/gaussian/g09/l202.exe)
                          Input orientation:                          
 ---------------------------------------------------------------------
 Center     Atomic      Atomic             Coordinates (Angstroms)
 Number     Number       Type             X           Y           Z
 ---------------------------------------------------------------------
      1          8           0        0.000000    0.000000    0.594827
      2          1           0       -0.928123    0.000000   -0.568244
      3          1           0        0.928123    0.000000   -0.568244
 ---------------------------------------------------------------------
                    Distance matrix (angstroms):
                    1          2          3
     1  O    0.000000
     2  H    1.488001   0.000000
     3  H    1.488001   1.856246   0.000000
 Stoichiometry    H2O
 Framework group  C2V[C2(O),SGV(H2)]
 Deg. of freedom     2
 Full point group                 C2V     NOp   4
 RotChk:  IX=0 Diff= 5.58D-16
 Largest Abelian subgroup         C2V     NOp   4
 Largest concise Abelian subgroup C2      NOp   2
                         Standard orientation:                         
 ---------------------------------------------------------------------
 Center     Atomic      Atomic             Coordinates (Angstroms)
 Number     Number       Type             X           Y           Z
 ---------------------------------------------------------------------
      1          8           0        0.000000    0.000000    0.232614
      2          1           0        0.000000    0.928123   -0.930457
      3          1           0        0.000000   -0.928123   -0.930457
 ---------------------------------------------------------------------
 Rotational constants (GHZ):    291.0658121    208.7059853    121.5498302
 Leave Link  202 at Mon Mar  7 13:01:27 2016, MaxMem=  131072000 cpu:       0.1
 (Enter /home/mdsoft/gaussian/g09/l301.exe)
 Standard basis: CC-pVTZ (5D, 7F)
 Ernie: Thresh=  0.10000D-02 Tol=  0.10000D-05 Strict=F.
 Ernie:  3 primitive shells out of 42 were deleted.
 There are    23 symmetry adapted basis functions of A1  symmetry.
 There are     7 symmetry adapted basis functions of A2  symmetry.
 There are    11 symmetry adapted basis functions of B1  symmetry.
 There are    17 symmetry adapted basis functions of B2  symmetry.
 Integral buffers will be    131072 words long.
 Raffenetti 1 integral format.
 Two-electron integral symmetry is turned on.
    58 basis functions,    86 primitive gaussians,    65 cartesian basis functions
     5 alpha electrons        5 beta electrons
       nuclear repulsion energy         5.9751537991 Hartrees.
 IExCor=    0 DFT=F Ex=HF Corr=None ExCW=0 ScaHFX=  1.000000
 ScaDFX=  1.000000  1.000000  1.000000  1.000000 ScalE2=  1.000000  1.000000
 IRadAn=      0 IRanWt=     -1 IRanGd=            0 ICorTp=0
 NAtoms=    3 NActive=    3 NUniq=    2 SFac= 2.25D+00 NAtFMM=   60 NAOKFM=F Big=F
 Leave Link  301 at Mon Mar  7 13:01:27 2016, MaxMem=  131072000 cpu:       0.4
 (Enter /home/mdsoft/gaussian/g09/l302.exe)
 NPDir=0 NMtPBC=     1 NCelOv=     1 NCel=       1 NClECP=     1 NCelD=      1
         NCelK=      1 NCelE2=     1 NClLst=     1 CellRange=     0.0.
 One-electron integrals computed using PRISM.
 One-electron integral symmetry used in STVInt
 NBasis=    58 RedAO= T  NBF=    23     7    11    17
 NBsUse=    58 1.00D-06 NBFU=    23     7    11    17
 Leave Link  302 at Mon Mar  7 13:01:27 2016, MaxMem=  131072000 cpu:       1.5
 (Enter /home/mdsoft/gaussian/g09/l303.exe)
 DipDrv:  MaxL=1.
 Leave Link  303 at Mon Mar  7 13:01:27 2016, MaxMem=  131072000 cpu:       0.2
 (Enter /home/mdsoft/gaussian/g09/l401.exe)
 Initial guess read from the read-write file.
 B after Tr=     0.000000    0.000000    0.000000
         Rot=    1.000000    0.000000    0.000000    0.000000 Ang=   0.00 deg.
 Guess basis will be translated and rotated to current coordinates.
 Initial guess orbital symmetries:
       Occupied  (A1) (A1) (B1) (B2) (A1)
       Virtual   (A1) (B2) (B2) (A1) (A1) (B1) (A1) (A2) (B2) (B1)
                 (B2) (A1) (B2) (A1) (A1) (A2) (B1) (B2) (A1) (A1)
                 (B2) (A1) (B1) (A1) (B2) (A2) (A2) (B1) (B2) (A1)
                 (B2) (B1) (A1) (A2) (B2) (A1) (B1) (B2) (B2) (A1)
                 (B1) (B2) (A1) (B1) (A2) (A1) (B2) (A2) (A1) (B1)
                 (A1) (B2) (A1)
 The electronic state of the initial guess is 1-A1.
 Generating alternative initial guess.
 Harris functional with IExCor=  205 diagonalized for initial guess.
 ExpMin= 1.03D-01 ExpMax= 1.53D+04 ExpMxC= 5.22D+02 IAcc=1 IRadAn=         1 AccDes= 0.00D+00
 HarFok:  IExCor=  205 AccDes= 0.00D+00 IRadAn=         1 IDoV= 1
 ScaDFX=  1.000000  1.000000  1.000000  1.000000
 FoFCou: FMM=F IPFlag=           0 FMFlag=      100000 FMFlg1=           0
         NFxFlg=           0 DoJE=T BraDBF=F KetDBF=T FulRan=T
         Omega=  0.000000  0.000000  1.000000  0.000000  0.000000 ICntrl=     500 IOpCl=  0
         NMat0=    1 NMatS0=    1 NMatT0=    0 NMatD0=    1 NMtDS0=    0 NMtDT0=    0
         I1Cent=           4 NGrid=           0.
 Petite list used in FoFCou.
 Harris En= -75.9615722615691    
 Leave Link  401 at Mon Mar  7 13:01:28 2016, MaxMem=  131072000 cpu:       2.9
 (Enter /home/mdsoft/gaussian/g09/l502.exe)
 Closed shell SCF:
 Requested convergence on RMS density matrix=1.00D-08 within 128 cycles.
 Requested convergence on MAX density matrix=1.00D-06.
 Requested convergence on             energy=1.00D-06.
 No special actions if energy rises.
 Using DIIS extrapolation, IDIIS=  1040.
 Integral symmetry usage will be decided dynamically.
 Keep R1 ints in memory in canonical form, NReq=4273800.
 IEnd=       32201 IEndB=       32201 NGot=   131072000 MDV=   128759117
 LenX=   128759117 LenY=   128754451
 Symmetry not used in FoFDir.
 MinBra= 0 MaxBra= 3 Meth= 1.
 IRaf=       0 NMat=   1 IRICut=       1 DoRegI=T DoRafI=F ISym2E= 0 JSym2E=0.

 Cycle   1  Pass 1  IDiag  1:
 E= -75.8124568812870    
 DIIS: error= 7.84D-03 at cycle   1 NSaved=   1.
 NSaved= 1 IEnMin= 1 EnMin= -75.8124568812870     IErMin= 1 ErrMin= 7.84D-03
 ErrMax= 7.84D-03 EMaxC= 1.00D-01 BMatC= 1.66D-03 BMatP= 1.66D-03
 IDIUse=3 WtCom= 9.22D-01 WtEn= 7.84D-02
 Coeff-Com:  0.100D+01
 Coeff-En:   0.100D+01
 Coeff:      0.100D+01
 Gap=     0.621 Goal=   None    Shift=    0.000
 GapD=    0.621 DampG=2.000 DampE=1.000 DampFc=2.0000 IDamp=-1.
 RMSDP=5.66D-04 MaxDP=7.95D-03              OVMax= 3.27D-02

 Cycle   2  Pass 1  IDiag  1:
 E= -75.8151023741879     Delta-E=       -0.002645492901 Rises=F Damp=F
 DIIS: error= 6.45D-03 at cycle   2 NSaved=   2.
 NSaved= 2 IEnMin= 2 EnMin= -75.8151023741879     IErMin= 2 ErrMin= 6.45D-03
 ErrMax= 6.45D-03 EMaxC= 1.00D-01 BMatC= 5.61D-04 BMatP= 1.66D-03
 IDIUse=3 WtCom= 9.35D-01 WtEn= 6.45D-02
 Coeff-Com:  0.225D+00 0.775D+00
 Coeff-En:   0.000D+00 0.100D+01
 Coeff:      0.211D+00 0.789D+00
 Gap=     0.562 Goal=   None    Shift=    0.000
 RMSDP=2.91D-04 MaxDP=4.38D-03 DE=-2.65D-03 OVMax= 1.62D-02

 Cycle   3  Pass 1  IDiag  1:
 E= -75.8158749143693     Delta-E=       -0.000772540181 Rises=F Damp=F
 DIIS: error= 4.15D-03 at cycle   3 NSaved=   3.
 NSaved= 3 IEnMin= 3 EnMin= -75.8158749143693     IErMin= 3 ErrMin= 4.15D-03
 ErrMax= 4.15D-03 EMaxC= 1.00D-01 BMatC= 1.86D-04 BMatP= 5.61D-04
 IDIUse=3 WtCom= 9.59D-01 WtEn= 4.15D-02
 Coeff-Com: -0.148D+00 0.283D+00 0.865D+00
 Coeff-En:   0.000D+00 0.000D+00 0.100D+01
 Coeff:     -0.142D+00 0.271D+00 0.871D+00
 Gap=     0.563 Goal=   None    Shift=    0.000
 RMSDP=2.33D-04 MaxDP=3.81D-03 DE=-7.73D-04 OVMax= 1.57D-02

 Cycle   4  Pass 1  IDiag  1:
 E= -75.8164032228962     Delta-E=       -0.000528308527 Rises=F Damp=F
 DIIS: error= 2.13D-03 at cycle   4 NSaved=   4.
 NSaved= 4 IEnMin= 4 EnMin= -75.8164032228962     IErMin= 4 ErrMin= 2.13D-03
 ErrMax= 2.13D-03 EMaxC= 1.00D-01 BMatC= 4.55D-05 BMatP= 1.86D-04
 IDIUse=3 WtCom= 9.79D-01 WtEn= 2.13D-02
 Coeff-Com:  0.471D-01-0.407D+00-0.450D+00 0.181D+01
 Coeff-En:   0.000D+00 0.000D+00 0.000D+00 0.100D+01
 Coeff:      0.461D-01-0.398D+00-0.440D+00 0.179D+01
 Gap=     0.561 Goal=   None    Shift=    0.000
 RMSDP=2.87D-04 MaxDP=3.52D-03 DE=-5.28D-04 OVMax= 1.48D-02

 Cycle   5  Pass 1  IDiag  1:
 E= -75.8167331757065     Delta-E=       -0.000329952810 Rises=F Damp=F
 DIIS: error= 6.62D-04 at cycle   5 NSaved=   5.
 NSaved= 5 IEnMin= 5 EnMin= -75.8167331757065     IErMin= 5 ErrMin= 6.62D-04
 ErrMax= 6.62D-04 EMaxC= 1.00D-01 BMatC= 7.04D-06 BMatP= 4.55D-05
 IDIUse=3 WtCom= 9.93D-01 WtEn= 6.62D-03
 Coeff-Com:  0.294D-01 0.229D-01-0.196D+00-0.296D+00 0.144D+01
 Coeff-En:   0.000D+00 0.000D+00 0.000D+00 0.000D+00 0.100D+01
 Coeff:      0.292D-01 0.227D-01-0.195D+00-0.295D+00 0.144D+01
 Gap=     0.557 Goal=   None    Shift=    0.000
 RMSDP=1.47D-04 MaxDP=1.95D-03 DE=-3.30D-04 OVMax= 7.62D-03

 Cycle   6  Pass 1  IDiag  1:
 E= -75.8167873671127     Delta-E=       -0.000054191406 Rises=F Damp=F
 DIIS: error= 1.65D-04 at cycle   6 NSaved=   6.
 NSaved= 6 IEnMin= 6 EnMin= -75.8167873671127     IErMin= 6 ErrMin= 1.65D-04
 ErrMax= 1.65D-04 EMaxC= 1.00D-01 BMatC= 4.97D-07 BMatP= 7.04D-06
 IDIUse=3 WtCom= 9.98D-01 WtEn= 1.65D-03
 Coeff-Com: -0.139D-01 0.324D-01 0.874D-01-0.104D-01-0.618D+00 0.152D+01
 Coeff-En:   0.000D+00 0.000D+00 0.000D+00 0.000D+00 0.000D+00 0.100D+01
 Coeff:     -0.138D-01 0.323D-01 0.873D-01-0.104D-01-0.617D+00 0.152D+01
 Gap=     0.557 Goal=   None    Shift=    0.000
 RMSDP=3.22D-05 MaxDP=4.50D-04 DE=-5.42D-05 OVMax= 1.63D-03

 Cycle   7  Pass 1  IDiag  1:
 E= -75.8167895742057     Delta-E=       -0.000002207093 Rises=F Damp=F
 DIIS: error= 3.28D-05 at cycle   7 NSaved=   7.
 NSaved= 7 IEnMin= 7 EnMin= -75.8167895742057     IErMin= 7 ErrMin= 3.28D-05
 ErrMax= 3.28D-05 EMaxC= 1.00D-01 BMatC= 1.07D-08 BMatP= 4.97D-07
 IDIUse=1 WtCom= 1.00D+00 WtEn= 0.00D+00
 Coeff-Com:  0.424D-02-0.128D-01-0.288D-01 0.231D-01 0.168D+00-0.542D+00
 Coeff-Com:  0.139D+01
 Coeff:      0.424D-02-0.128D-01-0.288D-01 0.231D-01 0.168D+00-0.542D+00
 Coeff:      0.139D+01
 Gap=     0.557 Goal=   None    Shift=    0.000
 RMSDP=2.39D-06 MaxDP=6.34D-05 DE=-2.21D-06 OVMax= 9.48D-05

 Cycle   8  Pass 1  IDiag  1:
 E= -75.8167895993879     Delta-E=       -0.000000025182 Rises=F Damp=F
 DIIS: error= 5.65D-06 at cycle   8 NSaved=   8.
 NSaved= 8 IEnMin= 8 EnMin= -75.8167895993879     IErMin= 8 ErrMin= 5.65D-06
 ErrMax= 5.65D-06 EMaxC= 1.00D-01 BMatC= 3.61D-10 BMatP= 1.07D-08
 IDIUse=1 WtCom= 1.00D+00 WtEn= 0.00D+00
 Coeff-Com: -0.439D-03 0.144D-02 0.254D-02-0.108D-02-0.231D-01 0.708D-01
 Coeff-Com: -0.284D+00 0.123D+01
 Coeff:     -0.439D-03 0.144D-02 0.254D-02-0.108D-02-0.231D-01 0.708D-01
 Coeff:     -0.284D+00 0.123D+01
 Gap=     0.557 Goal=   None    Shift=    0.000
 RMSDP=4.48D-07 MaxDP=8.74D-06 DE=-2.52D-08 OVMax= 1.54D-05

 Cycle   9  Pass 1  IDiag  1:
 E= -75.8167896000298     Delta-E=       -0.000000000642 Rises=F Damp=F
 DIIS: error= 6.28D-07 at cycle   9 NSaved=   9.
 NSaved= 9 IEnMin= 9 EnMin= -75.8167896000298     IErMin= 9 ErrMin= 6.28D-07
 ErrMax= 6.28D-07 EMaxC= 1.00D-01 BMatC= 1.32D-11 BMatP= 3.61D-10
 IDIUse=1 WtCom= 1.00D+00 WtEn= 0.00D+00
 Coeff-Com: -0.406D-04 0.127D-03 0.459D-03-0.986D-03 0.220D-04 0.322D-02
 Coeff-Com: -0.198D-02-0.922D-01 0.109D+01
 Coeff:     -0.406D-04 0.127D-03 0.459D-03-0.986D-03 0.220D-04 0.322D-02
 Coeff:     -0.198D-02-0.922D-01 0.109D+01
 Gap=     0.557 Goal=   None    Shift=    0.000
 RMSDP=4.20D-08 MaxDP=7.30D-07 DE=-6.42D-10 OVMax= 1.91D-06

 Cycle  10  Pass 1  IDiag  1:
 E= -75.8167896000414     Delta-E=       -0.000000000012 Rises=F Damp=F
 DIIS: error= 5.50D-08 at cycle  10 NSaved=  10.
 NSaved=10 IEnMin=10 EnMin= -75.8167896000414     IErMin=10 ErrMin= 5.50D-08
 ErrMax= 5.50D-08 EMaxC= 1.00D-01 BMatC= 5.02D-14 BMatP= 1.32D-11
 IDIUse=1 WtCom= 1.00D+00 WtEn= 0.00D+00
 Coeff-Com:  0.393D-05-0.514D-05-0.586D-04 0.895D-04 0.932D-04-0.719D-03
 Coeff-Com:  0.189D-02 0.165D-02-0.171D+00 0.117D+01
 Coeff:      0.393D-05-0.514D-05-0.586D-04 0.895D-04 0.932D-04-0.719D-03
 Coeff:      0.189D-02 0.165D-02-0.171D+00 0.117D+01
 Gap=     0.557 Goal=   None    Shift=    0.000
 RMSDP=6.28D-09 MaxDP=8.84D-08 DE=-1.17D-11 OVMax= 1.89D-07

 SCF Done:  E(RHF) =  -75.8167896000     A.U. after   10 cycles
             Convg  =    0.6281D-08             -V/T =  2.0095
 KE= 7.510415466195D+01 PE=-1.919417597605D+02 EE= 3.504566169936D+01
 Leave Link  502 at Mon Mar  7 13:01:28 2016, MaxMem=  131072000 cpu:       2.6
 (Enter /home/mdsoft/gaussian/g09/l801.exe)
 ExpMin= 1.03D-01 ExpMax= 1.53D+04 ExpMxC= 5.22D+02 IAcc=3 IRadAn=         5 AccDes= 0.00D+00
 HarFok:  IExCor=  205 AccDes= 0.00D+00 IRadAn=         5 IDoV=-2
 ScaDFX=  1.000000  1.000000  1.000000  1.000000
 Largest valence mixing into a core orbital is  1.54D-04
 Largest core mixing into a valence orbital is  3.69D-05
 Range of M.O.s used for correlation:     2    58
 NBasis=    58 NAE=     5 NBE=     5 NFC=     1 NFV=     0
 NROrb=     57 NOA=     4 NOB=     4 NVA=    53 NVB=    53
 Leave Link  801 at Mon Mar  7 13:01:28 2016, MaxMem=  131072000 cpu:       0.3
 (Enter /home/mdsoft/gaussian/g09/l906.exe)
 Frozen-core derivative calculation, NFC=   1 NFV=   0.
 FulOut=F Deriv=T AODrv=T NAtomX=     3
   MMem=        1324  MDisk=           4 MDiskD=           4
  W3Min=       18850 MinDsk=      107395 NBas6D=          65
 NBas2D=        2271    NTT=        2145    LW2=     3500000
    MDV=   131019044 MDiskM=        9924 NBas2p=        1521
 Fully direct method using O(ONN) memory.
 IMap=   1   2   3   4   5
 JobTyp=1 Pass  1:  I=   2 to   4 NPSUse= 12 ParTrn=T ParDer=T DoDerP=T.
 JobTyp=1 Pass  2:  I=   5 to   5 NPSUse= 12 ParTrn=T ParDer=T DoDerP=T.
 Spin components of T(2) and E(2):
     alpha-alpha T2 =       0.1311232970D-01 E2=     -0.3662395358D-01
     alpha-beta  T2 =       0.9104248819D-01 E2=     -0.2380441081D+00
     beta-beta   T2 =       0.1311232970D-01 E2=     -0.3662395358D-01
 The integrals were generated   2 times.
 ANorm=    0.1057008584D+01
 E2 =    -0.3112920152D+00 EUMP2 =    -0.76128081615270D+02
 Leave Link  906 at Mon Mar  7 13:01:28 2016, MaxMem=  131072000 cpu:       5.3
 (Enter /home/mdsoft/gaussian/g09/l1002.exe)
 Minotr:  Closed shell wavefunction.
          Computing MP2/KS-MP2 derivatives.
          Using Z-Vector for PSCF gradient.
          Skipping F1 and S1 gradient terms here.
          IDoAtm=111
          Frozen-core window.
          Direct CPHF calculation.
          Differentiating once with respect to electric field.
                with respect to dipole field.
          Differentiating once with respect to nuclear coordinates.
          Using symmetry in CPHF.
          Requested convergence is 1.0D-10 RMS, and 1.0D-09 maximum.
          NewPWx=F KeepS1=T KeepF1=T KeepIn=T MapXYZ=F SortEE=F KeepMc=T.
          MDV=     131071966 using IRadAn=       0.
          Keep R1 ints in memory in canonical form, NReq=4242450.
 Symmetry not used in FoFDir.
 MinBra= 0 MaxBra= 3 Meth= 1.
 IRaf=       0 NMat=   1 IRICut=       1 DoRegI=T DoRafI=F ISym2E= 0 JSym2E=0.
          Solving linear equations separately, MaxMat=       0.
          There are     1 degrees of freedom in the 1st order CPHF.  IDoFFX=0.
 LinEq1:  Iter=  0 NonCon=     1 RMS=1.18D-02 Max=8.80D-02
 AX will form     1 AO Fock derivatives at one time.
 LinEq1:  Iter=  1 NonCon=     1 RMS=3.37D-03 Max=2.78D-02
 LinEq1:  Iter=  2 NonCon=     1 RMS=3.15D-03 Max=4.26D-02
 LinEq1:  Iter=  3 NonCon=     1 RMS=9.05D-04 Max=7.34D-03
 LinEq1:  Iter=  4 NonCon=     1 RMS=1.76D-04 Max=1.26D-03
 LinEq1:  Iter=  5 NonCon=     1 RMS=3.36D-05 Max=2.65D-04
 LinEq1:  Iter=  6 NonCon=     1 RMS=3.65D-06 Max=2.38D-05
 LinEq1:  Iter=  7 NonCon=     1 RMS=3.31D-07 Max=1.95D-06
 LinEq1:  Iter=  8 NonCon=     1 RMS=2.06D-08 Max=1.28D-07
 LinEq1:  Iter=  9 NonCon=     1 RMS=1.51D-09 Max=9.64D-09
 LinEq1:  Iter= 10 NonCon=     1 RMS=1.15D-10 Max=8.14D-10
 LinEq1:  Iter= 11 NonCon=     0 RMS=7.27D-12 Max=4.26D-11
 Linear equations converged to 1.000D-10 1.000D-09 after    11 iterations.
 End of Minotr Frequency-dependent properties file   721 does not exist.
 End of Minotr Frequency-dependent properties file   722 does not exist.
 Leave Link 1002 at Mon Mar  7 13:01:29 2016, MaxMem=  131072000 cpu:       3.6
 (Enter /home/mdsoft/gaussian/g09/l701.exe)
 Compute integral first derivatives.
 ... and contract with generalized density number  2.
 Leave Link  701 at Mon Mar  7 13:01:29 2016, MaxMem=  131072000 cpu:       2.0
 (Enter /home/mdsoft/gaussian/g09/l702.exe)
 L702 exits ... SP integral derivatives will be done elsewhere.
 Leave Link  702 at Mon Mar  7 13:01:29 2016, MaxMem=  131072000 cpu:       0.1
 (Enter /home/mdsoft/gaussian/g09/l703.exe)
 Compute integral first derivatives, UseDBF=F ICtDFT=           0.
 Integral derivatives from FoFDir, PRISM(SPDF).
 Calling FoFJK, ICntrl=      2127 FMM=F ISym2X=1 I1Cent= 0 IOpClX= 0 NMat=1 NMatS=1 NMatT=0.
 FoFCou: FMM=F IPFlag=           0 FMFlag=      100000 FMFlg1=         800
         NFxFlg=           0 DoJE=F BraDBF=F KetDBF=F FulRan=T
         Omega=  0.000000  0.000000  1.000000  0.000000  0.000000 ICntrl=    2127 IOpCl=  0
         NMat0=    1 NMatS0=    1 NMatT0=    0 NMatD0=    1 NMtDS0=    0 NMtDT0=    0
         I1Cent=           0 NGrid=           0.
 Petite list used in FoFCou.
 Leave Link  703 at Mon Mar  7 13:01:30 2016, MaxMem=  131072000 cpu:       4.5
 (Enter /home/mdsoft/gaussian/g09/l716.exe)
 Dipole        =-4.44497116D-17 0.00000000D+00-9.54889187D-01
 ***** Axes restored to original set *****
 -------------------------------------------------------------------
 Center     Atomic                   Forces (Hartrees/Bohr)
 Number     Number              X              Y              Z
 -------------------------------------------------------------------
      1        8           0.000000000    0.000000000   -0.180622469
      2        1           0.059410614    0.000000000    0.090311235
      3        1          -0.059410614    0.000000000    0.090311235
 -------------------------------------------------------------------
 Cartesian Forces:  Max     0.180622469 RMS     0.078878216
 Leave Link  716 at Mon Mar  7 13:01:30 2016, MaxMem=  131072000 cpu:       0.2
 (Enter /home/mdsoft/gaussian/g09/l103.exe)

 GradGradGradGradGradGradGradGradGradGradGradGradGradGradGradGradGradGrad
 Berny optimization.
 Using GEDIIS/GDIIS optimizer.
 Internal  Forces:  Max     0.107646942 RMS     0.089348794
 Search for a local minimum.
 Step number   2 out of a maximum of   20
 All quantities printed in internal units (Hartrees-Bohrs-Radians)
 RMS Force = .89349D-01 SwitMx=.10000D-02 MixMth= 1
 Mixed Optimization -- RFO/linear search
 Update second derivatives using D2CorX and points    1    2
 DE= -4.75D-02 DEPred=-4.59D-02 R= 1.04D+00
 SS=  1.41D+00  RLast= 3.00D-01 DXNew= 5.0454D-01 9.0000D-01
 Trust test= 1.04D+00 RLast= 3.00D-01 DXMaxT set to 5.05D-01
 The second derivative matrix:
                          R1        R2        A1
           R1           0.05397
           R2          -0.03799   0.05397
           A1           0.01412   0.01412   0.47437
 ITU=  1  0
 Use linear search instead of GDIIS.
 Linear search step of   0.600 exceeds DXMaxT=   0.505 but not scaled.
 Quartic linear search produced a step of  2.00000.
 Iteration  1 RMS(Cart)=  0.16365065 RMS(Int)=  0.17691878
 Iteration  2 RMS(Cart)=  0.13885090 RMS(Int)=  0.01351516
 Iteration  3 RMS(Cart)=  0.01048770 RMS(Int)=  0.00000444
 Iteration  4 RMS(Cart)=  0.00000634 RMS(Int)=  0.00000000
 Iteration  5 RMS(Cart)=  0.00000000 RMS(Int)=  0.00000000
 ClnCor:  largest displacement from symmetrization is 3.33D-16 for atom     3.
 Variable       Old X    -DE/DX   Delta X   Delta X   Delta X     New X
                                 (Linear)    (Quad)   (Total)
    R1        2.81191  -0.10765  -0.40348   0.00000  -0.40348   2.40843
    R2        2.81191  -0.10765  -0.40348   0.00000  -0.40348   2.40843
    A1        1.34703   0.02782   0.18548   0.00000   0.18548   1.53252
         Item               Value     Threshold  Converged?
 Maximum Force            0.107647     0.000450     NO 
 RMS     Force            0.089349     0.000300     NO 
 Maximum Displacement     0.308390     0.001800     NO 
 RMS     Displacement     0.228544     0.001200     NO 
 Predicted change in Energy=-8.338056D-02
 GradGradGradGradGradGradGradGradGradGradGradGradGradGradGradGradGradGrad

 Leave Link  103 at Mon Mar  7 13:01:30 2016, MaxMem=  131072000 cpu:       0.1
 (Enter /home/mdsoft/gaussian/g09/l202.exe)
                          Input orientation:                          
 ---------------------------------------------------------------------
 Center     Atomic      Atomic             Coordinates (Angstroms)
 Number     Number       Type             X           Y           Z
 ---------------------------------------------------------------------
      1          8           0        0.000000    0.000000    0.431634
      2          1           0       -0.883785    0.000000   -0.486648
      3          1           0        0.883785    0.000000   -0.486648
 ---------------------------------------------------------------------
                    Distance matrix (angstroms):
                    1          2          3
     1  O    0.000000
     2  H    1.274487   0.000000
     3  H    1.274487   1.767570   0.000000
 Stoichiometry    H2O
 Framework group  C2V[C2(O),SGV(H2)]
 Deg. of freedom     2
 Full point group                 C2V     NOp   4
 RotChk:  IX=0 Diff= 1.02D-15
 Largest Abelian subgroup         C2V     NOp   4
 Largest concise Abelian subgroup C2      NOp   2
                         Standard orientation:                         
 ---------------------------------------------------------------------
 Center     Atomic      Atomic             Coordinates (Angstroms)
 Number     Number       Type             X           Y           Z
 ---------------------------------------------------------------------
      1          8           0        0.000000    0.000000    0.183656
      2          1           0        0.000000    0.883785   -0.734625
      3          1           0        0.000000   -0.883785   -0.734625
 ---------------------------------------------------------------------
 Rotational constants (GHZ):    334.8078154    321.0026710    163.8799703
 Leave Link  202 at Mon Mar  7 13:01:30 2016, MaxMem=  131072000 cpu:       0.1
 (Enter /home/mdsoft/gaussian/g09/l301.exe)
 Standard basis: CC-pVTZ (5D, 7F)
 Ernie: Thresh=  0.10000D-02 Tol=  0.10000D-05 Strict=F.
 Ernie:  3 primitive shells out of 42 were deleted.
 There are    23 symmetry adapted basis functions of A1  symmetry.
 There are     7 symmetry adapted basis functions of A2  symmetry.
 There are    11 symmetry adapted basis functions of B1  symmetry.
 There are    17 symmetry adapted basis functions of B2  symmetry.
 Integral buffers will be    131072 words long.
 Raffenetti 1 integral format.
 Two-electron integral symmetry is turned on.
    58 basis functions,    86 primitive gaussians,    65 cartesian basis functions
     5 alpha electrons        5 beta electrons
       nuclear repulsion energy         6.9427084321 Hartrees.
 IExCor=    0 DFT=F Ex=HF Corr=None ExCW=0 ScaHFX=  1.000000
 ScaDFX=  1.000000  1.000000  1.000000  1.000000 ScalE2=  1.000000  1.000000
 IRadAn=      0 IRanWt=     -1 IRanGd=            0 ICorTp=0
 NAtoms=    3 NActive=    3 NUniq=    2 SFac= 2.25D+00 NAtFMM=   60 NAOKFM=F Big=F
 Leave Link  301 at Mon Mar  7 13:01:30 2016, MaxMem=  131072000 cpu:       0.4
 (Enter /home/mdsoft/gaussian/g09/l302.exe)
 NPDir=0 NMtPBC=     1 NCelOv=     1 NCel=       1 NClECP=     1 NCelD=      1
         NCelK=      1 NCelE2=     1 NClLst=     1 CellRange=     0.0.
 One-electron integrals computed using PRISM.
 One-electron integral symmetry used in STVInt
 NBasis=    58 RedAO= T  NBF=    23     7    11    17
 NBsUse=    58 1.00D-06 NBFU=    23     7    11    17
 Leave Link  302 at Mon Mar  7 13:01:30 2016, MaxMem=  131072000 cpu:       1.4
 (Enter /home/mdsoft/gaussian/g09/l303.exe)
 DipDrv:  MaxL=1.
 Leave Link  303 at Mon Mar  7 13:01:30 2016, MaxMem=  131072000 cpu:       1.0
 (Enter /home/mdsoft/gaussian/g09/l401.exe)
 Initial guess read from the read-write file.
 B after Tr=     0.000000    0.000000    0.000000
         Rot=    1.000000    0.000000    0.000000    0.000000 Ang=   0.00 deg.
 Guess basis will be translated and rotated to current coordinates.
 Initial guess orbital symmetries:
       Occupied  (A1) (A1) (A1) (B1) (B2)
       Virtual   (A1) (B2) (B2) (A1) (A1) (B1) (A1) (A2) (B2) (B1)
                 (B2) (A1) (B2) (A1) (A2) (A1) (B1) (A1) (B2) (A1)
                 (B2) (A1) (B1) (B2) (A1) (A2) (A2) (B2) (B1) (A1)
                 (B2) (B1) (A1) (A2) (B2) (B1) (A1) (B2) (B2) (A1)
                 (B1) (B2) (A1) (B1) (A2) (A1) (B2) (A2) (B1) (A1)
                 (A1) (B2) (A1)
 The electronic state of the initial guess is 1-A1.
 Generating alternative initial guess.
 Harris functional with IExCor=  205 diagonalized for initial guess.
 ExpMin= 1.03D-01 ExpMax= 1.53D+04 ExpMxC= 5.22D+02 IAcc=1 IRadAn=         1 AccDes= 0.00D+00
 HarFok:  IExCor=  205 AccDes= 0.00D+00 IRadAn=         1 IDoV= 1
 ScaDFX=  1.000000  1.000000  1.000000  1.000000
 FoFCou: FMM=F IPFlag=           0 FMFlag=      100000 FMFlg1=           0
         NFxFlg=           0 DoJE=T BraDBF=F KetDBF=T FulRan=T
         Omega=  0.000000  0.000000  1.000000  0.000000  0.000000 ICntrl=     500 IOpCl=  0
         NMat0=    1 NMatS0=    1 NMatT0=    0 NMatD0=    1 NMtDS0=    0 NMtDT0=    0
         I1Cent=           4 NGrid=           0.
 Petite list used in FoFCou.
 Harris En= -76.0472613138065    
 Leave Link  401 at Mon Mar  7 13:01:31 2016, MaxMem=  131072000 cpu:       2.9
 (Enter /home/mdsoft/gaussian/g09/l502.exe)
 Closed shell SCF:
 Requested convergence on RMS density matrix=1.00D-08 within 128 cycles.
 Requested convergence on MAX density matrix=1.00D-06.
 Requested convergence on             energy=1.00D-06.
 No special actions if energy rises.
 Using DIIS extrapolation, IDIIS=  1040.
 Integral symmetry usage will be decided dynamically.
 Keep R1 ints in memory in canonical form, NReq=4273800.
 IEnd=       32201 IEndB=       32201 NGot=   131072000 MDV=   128759117
 LenX=   128759117 LenY=   128754451
 Symmetry not used in FoFDir.
 MinBra= 0 MaxBra= 3 Meth= 1.
 IRaf=       0 NMat=   1 IRICut=       1 DoRegI=T DoRafI=F ISym2E= 0 JSym2E=0.

 Cycle   1  Pass 1  IDiag  1:
 E= -75.9150631862290    
 DIIS: error= 1.66D-02 at cycle   1 NSaved=   1.
 NSaved= 1 IEnMin= 1 EnMin= -75.9150631862290     IErMin= 1 ErrMin= 1.66D-02
 ErrMax= 1.66D-02 EMaxC= 1.00D-01 BMatC= 9.89D-03 BMatP= 9.89D-03
 IDIUse=3 WtCom= 8.34D-01 WtEn= 1.66D-01
 Coeff-Com:  0.100D+01
 Coeff-En:   0.100D+01
 Coeff:      0.100D+01
 Recover alternate guess density for next cycle.
 RMSDP=3.46D-03 MaxDP=5.07D-02              OVMax= 0.00D+00

 Cycle   2  Pass 1  IDiag  1:
 E= -75.8442919620371     Delta-E=        0.070771224192 Rises=F Damp=F
 Switch densities from cycles 1 and 2 for lowest energy.
 DIIS: error= 6.98D-02 at cycle   2 NSaved=   2.
 NSaved= 2 IEnMin= 1 EnMin= -75.9150631862290     IErMin= 1 ErrMin= 1.66D-02
 ErrMax= 6.98D-02 EMaxC= 1.00D+00 BMatC= 1.63D-01 BMatP= 9.89D-03
 IDIUse=1 WtCom= 1.00D+00 WtEn= 0.00D+00
 Coeff-Com:  0.896D+00 0.104D+00
 Coeff:      0.896D+00 0.104D+00
 Gap=     0.697 Goal=   None    Shift=    0.000
 RMSDP=1.21D-03 MaxDP=1.41D-02 DE= 7.08D-02 OVMax= 5.94D-02

 Cycle   3  Pass 1  IDiag  1:
 E= -75.9285677277511     Delta-E=       -0.084275765714 Rises=F Damp=F
 DIIS: error= 5.82D-03 at cycle   3 NSaved=   3.
 NSaved= 3 IEnMin= 3 EnMin= -75.9285677277511     IErMin= 3 ErrMin= 5.82D-03
 ErrMax= 5.82D-03 EMaxC= 1.00D+00 BMatC= 5.80D-04 BMatP= 9.89D-03
 IDIUse=1 WtCom= 1.00D+00 WtEn= 0.00D+00
 Coeff-Com: -0.963D-01-0.130D-01 0.111D+01
 Coeff:     -0.963D-01-0.130D-01 0.111D+01
 Gap=     0.598 Goal=   None    Shift=    0.000
 RMSDP=4.52D-04 MaxDP=4.55D-03 DE=-8.43D-02 OVMax= 2.12D-02

 Cycle   4  Pass 1  IDiag  1:
 E= -75.9300954846956     Delta-E=       -0.001527756944 Rises=F Damp=F
 DIIS: error= 3.41D-03 at cycle   4 NSaved=   4.
 NSaved= 4 IEnMin= 4 EnMin= -75.9300954846956     IErMin= 4 ErrMin= 3.41D-03
 ErrMax= 3.41D-03 EMaxC= 1.00D+00 BMatC= 1.08D-04 BMatP= 5.80D-04
 IDIUse=1 WtCom= 1.00D+00 WtEn= 0.00D+00
 Coeff-Com: -0.370D-01 0.519D-02-0.178D+00 0.121D+01
 Coeff:     -0.370D-01 0.519D-02-0.178D+00 0.121D+01
 Gap=     0.595 Goal=   None    Shift=    0.000
 RMSDP=2.69D-04 MaxDP=3.64D-03 DE=-1.53D-03 OVMax= 1.51D-02

 Cycle   5  Pass 1  IDiag  1:
 E= -75.9305384026470     Delta-E=       -0.000442917951 Rises=F Damp=F
 DIIS: error= 1.33D-03 at cycle   5 NSaved=   5.
 NSaved= 5 IEnMin= 5 EnMin= -75.9305384026470     IErMin= 5 ErrMin= 1.33D-03
 ErrMax= 1.33D-03 EMaxC= 1.00D+00 BMatC= 2.10D-05 BMatP= 1.08D-04
 IDIUse=1 WtCom= 1.00D+00 WtEn= 0.00D+00
 Coeff-Com:  0.316D-01-0.192D-02-0.111D+00-0.508D+00 0.159D+01
 Coeff:      0.316D-01-0.192D-02-0.111D+00-0.508D+00 0.159D+01
 Gap=     0.592 Goal=   None    Shift=    0.000
 RMSDP=1.76D-04 MaxDP=2.29D-03 DE=-4.43D-04 OVMax= 8.90D-03

 Cycle   6  Pass 1  IDiag  1:
 E= -75.9306453273912     Delta-E=       -0.000106924744 Rises=F Damp=F
 DIIS: error= 2.35D-04 at cycle   6 NSaved=   6.
 NSaved= 6 IEnMin= 6 EnMin= -75.9306453273912     IErMin= 6 ErrMin= 2.35D-04
 ErrMax= 2.35D-04 EMaxC= 1.00D+00 BMatC= 1.55D-06 BMatP= 2.10D-05
 IDIUse=1 WtCom= 1.00D+00 WtEn= 0.00D+00
 Coeff-Com:  0.188D-03 0.102D-02 0.283D-01-0.749D-01-0.885D-01 0.113D+01
 Coeff:      0.188D-03 0.102D-02 0.283D-01-0.749D-01-0.885D-01 0.113D+01
 Gap=     0.592 Goal=   None    Shift=    0.000
 RMSDP=3.11D-05 MaxDP=5.01D-04 DE=-1.07D-04 OVMax= 1.58D-03

 Cycle   7  Pass 1  IDiag  1:
 E= -75.9306497178339     Delta-E=       -0.000004390443 Rises=F Damp=F
 DIIS: error= 1.38D-04 at cycle   7 NSaved=   7.
 NSaved= 7 IEnMin= 7 EnMin= -75.9306497178339     IErMin= 7 ErrMin= 1.38D-04
 ErrMax= 1.38D-04 EMaxC= 1.00D+00 BMatC= 1.15D-07 BMatP= 1.55D-06
 IDIUse=1 WtCom= 1.00D+00 WtEn= 0.00D+00
 Coeff-Com: -0.277D-02-0.282D-03 0.985D-02 0.525D-01-0.156D+00-0.102D+00
 Coeff-Com:  0.120D+01
 Coeff:     -0.277D-02-0.282D-03 0.985D-02 0.525D-01-0.156D+00-0.102D+00
 Coeff:      0.120D+01
 Gap=     0.592 Goal=   None    Shift=    0.000
 RMSDP=9.90D-06 MaxDP=1.59D-04 DE=-4.39D-06 OVMax= 5.37D-04

 Cycle   8  Pass 1  IDiag  1:
 E= -75.9306500829814     Delta-E=       -0.000000365148 Rises=F Damp=F
 DIIS: error= 2.34D-05 at cycle   8 NSaved=   8.
 NSaved= 8 IEnMin= 8 EnMin= -75.9306500829814     IErMin= 8 ErrMin= 2.34D-05
 ErrMax= 2.34D-05 EMaxC= 1.00D+00 BMatC= 5.39D-09 BMatP= 1.15D-07
 IDIUse=1 WtCom= 1.00D+00 WtEn= 0.00D+00
 Coeff-Com:  0.122D-02 0.739D-04-0.513D-02-0.216D-01 0.772D-01-0.275D-01
 Coeff-Com: -0.451D+00 0.143D+01
 Coeff:      0.122D-02 0.739D-04-0.513D-02-0.216D-01 0.772D-01-0.275D-01
 Coeff:     -0.451D+00 0.143D+01
 Gap=     0.592 Goal=   None    Shift=    0.000
 RMSDP=1.63D-06 MaxDP=4.05D-05 DE=-3.65D-07 OVMax= 6.32D-05

 Cycle   9  Pass 1  IDiag  1:
 E= -75.9306500953455     Delta-E=       -0.000000012364 Rises=F Damp=F
 DIIS: error= 2.70D-06 at cycle   9 NSaved=   9.
 NSaved= 9 IEnMin= 9 EnMin= -75.9306500953455     IErMin= 9 ErrMin= 2.70D-06
 ErrMax= 2.70D-06 EMaxC= 1.00D+00 BMatC= 1.03D-10 BMatP= 5.39D-09
 IDIUse=1 WtCom= 1.00D+00 WtEn= 0.00D+00
 Coeff-Com: -0.198D-03-0.106D-04 0.837D-03 0.399D-02-0.147D-01 0.890D-02
 Coeff-Com:  0.814D-01-0.386D+00 0.131D+01
 Coeff:     -0.198D-03-0.106D-04 0.837D-03 0.399D-02-0.147D-01 0.890D-02
 Coeff:      0.814D-01-0.386D+00 0.131D+01
 Gap=     0.592 Goal=   None    Shift=    0.000
 RMSDP=2.75D-07 MaxDP=4.80D-06 DE=-1.24D-08 OVMax= 9.35D-06

 Cycle  10  Pass 1  IDiag  1:
 E= -75.9306500956000     Delta-E=       -0.000000000254 Rises=F Damp=F
 DIIS: error= 1.66D-07 at cycle  10 NSaved=  10.
 NSaved=10 IEnMin=10 EnMin= -75.9306500956000     IErMin=10 ErrMin= 1.66D-07
 ErrMax= 1.66D-07 EMaxC= 1.00D+00 BMatC= 1.02D-12 BMatP= 1.03D-10
 IDIUse=1 WtCom= 1.00D+00 WtEn= 0.00D+00
 Coeff-Com:  0.132D-04 0.854D-06-0.410D-04-0.398D-03 0.124D-02-0.192D-03
 Coeff-Com: -0.918D-02 0.440D-01-0.197D+00 0.116D+01
 Coeff:      0.132D-04 0.854D-06-0.410D-04-0.398D-03 0.124D-02-0.192D-03
 Coeff:     -0.918D-02 0.440D-01-0.197D+00 0.116D+01
 Gap=     0.592 Goal=   None    Shift=    0.000
 RMSDP=2.48D-08 MaxDP=3.19D-07 DE=-2.54D-10 OVMax= 7.63D-07

 Cycle  11  Pass 1  IDiag  1:
 E= -75.9306500956014     Delta-E=       -0.000000000001 Rises=F Damp=F
 DIIS: error= 2.05D-08 at cycle  11 NSaved=  11.
 NSaved=11 IEnMin=11 EnMin= -75.9306500956014     IErMin=11 ErrMin= 2.05D-08
 ErrMax= 2.05D-08 EMaxC= 1.00D+00 BMatC= 9.89D-15 BMatP= 1.02D-12
 IDIUse=1 WtCom= 1.00D+00 WtEn= 0.00D+00
 Coeff-Com: -0.130D-05-0.472D-07 0.131D-05 0.577D-04-0.151D-03-0.781D-04
 Coeff-Com:  0.136D-02-0.599D-02 0.273D-01-0.216D+00 0.119D+01
 Coeff:     -0.130D-05-0.472D-07 0.131D-05 0.577D-04-0.151D-03-0.781D-04
 Coeff:      0.136D-02-0.599D-02 0.273D-01-0.216D+00 0.119D+01
 Gap=     0.592 Goal=   None    Shift=    0.000
 RMSDP=2.95D-09 MaxDP=3.80D-08 DE=-1.42D-12 OVMax= 1.04D-07

 SCF Done:  E(RHF) =  -75.9306500956     A.U. after   11 cycles
             Convg  =    0.2950D-08             -V/T =  2.0087
 KE= 7.527948216285D+01 PE=-1.941148941179D+02 EE= 3.596205342729D+01
 Leave Link  502 at Mon Mar  7 13:01:31 2016, MaxMem=  131072000 cpu:       2.6
 (Enter /home/mdsoft/gaussian/g09/l801.exe)
 ExpMin= 1.03D-01 ExpMax= 1.53D+04 ExpMxC= 5.22D+02 IAcc=3 IRadAn=         5 AccDes= 0.00D+00
 HarFok:  IExCor=  205 AccDes= 0.00D+00 IRadAn=         5 IDoV=-2
 ScaDFX=  1.000000  1.000000  1.000000  1.000000
 Largest valence mixing into a core orbital is  1.51D-04
 Largest core mixing into a valence orbital is  3.23D-05
 Range of M.O.s used for correlation:     2    58
 NBasis=    58 NAE=     5 NBE=     5 NFC=     1 NFV=     0
 NROrb=     57 NOA=     4 NOB=     4 NVA=    53 NVB=    53
 Leave Link  801 at Mon Mar  7 13:01:31 2016, MaxMem=  131072000 cpu:       0.3
 (Enter /home/mdsoft/gaussian/g09/l906.exe)
 Frozen-core derivative calculation, NFC=   1 NFV=   0.
 FulOut=F Deriv=T AODrv=T NAtomX=     3
   MMem=        1324  MDisk=           4 MDiskD=           4
  W3Min=       18850 MinDsk=      107395 NBas6D=          65
 NBas2D=        2271    NTT=        2145    LW2=     3500000
    MDV=   131018792 MDiskM=        9924 NBas2p=        1521
 Fully direct method using O(ONN) memory.
 IMap=   1   2   3   4   5
 JobTyp=1 Pass  1:  I=   2 to   4 NPSUse= 12 ParTrn=T ParDer=T DoDerP=T.
 JobTyp=1 Pass  2:  I=   5 to   5 NPSUse= 12 ParTrn=T ParDer=T DoDerP=T.
 Spin components of T(2) and E(2):
     alpha-alpha T2 =       0.1054295190D-01 E2=     -0.3469112745D-01
     alpha-beta  T2 =       0.6806074673D-01 E2=     -0.2210546579D+00
     beta-beta   T2 =       0.1054295190D-01 E2=     -0.3469112745D-01
 The integrals were generated   2 times.
 ANorm=    0.1043621891D+01
 E2 =    -0.2904369128D+00 EUMP2 =    -0.76221087008393D+02
 Leave Link  906 at Mon Mar  7 13:01:31 2016, MaxMem=  131072000 cpu:       4.1
 (Enter /home/mdsoft/gaussian/g09/l1002.exe)
 Minotr:  Closed shell wavefunction.
          Computing MP2/KS-MP2 derivatives.
          Using Z-Vector for PSCF gradient.
          Skipping F1 and S1 gradient terms here.
          IDoAtm=111
          Frozen-core window.
          Direct CPHF calculation.
          Differentiating once with respect to electric field.
                with respect to dipole field.
          Differentiating once with respect to nuclear coordinates.
          Using symmetry in CPHF.
          Requested convergence is 1.0D-10 RMS, and 1.0D-09 maximum.
          NewPWx=F KeepS1=T KeepF1=T KeepIn=T MapXYZ=F SortEE=F KeepMc=T.
          MDV=     131071966 using IRadAn=       0.
          Keep R1 ints in memory in canonical form, NReq=4242450.
 Symmetry not used in FoFDir.
 MinBra= 0 MaxBra= 3 Meth= 1.
 IRaf=       0 NMat=   1 IRICut=       1 DoRegI=T DoRafI=F ISym2E= 0 JSym2E=0.
          Solving linear equations separately, MaxMat=       0.
          There are     1 degrees of freedom in the 1st order CPHF.  IDoFFX=0.
 LinEq1:  Iter=  0 NonCon=     1 RMS=7.30D-03 Max=5.47D-02
 AX will form     1 AO Fock derivatives at one time.
 LinEq1:  Iter=  1 NonCon=     1 RMS=1.60D-03 Max=1.65D-02
 LinEq1:  Iter=  2 NonCon=     1 RMS=1.25D-03 Max=1.33D-02
 LinEq1:  Iter=  3 NonCon=     1 RMS=1.87D-04 Max=1.21D-03
 LinEq1:  Iter=  4 NonCon=     1 RMS=3.76D-05 Max=3.14D-04
 LinEq1:  Iter=  5 NonCon=     1 RMS=7.49D-06 Max=7.23D-05
 LinEq1:  Iter=  6 NonCon=     1 RMS=1.30D-06 Max=8.72D-06
 LinEq1:  Iter=  7 NonCon=     1 RMS=1.32D-07 Max=6.02D-07
 LinEq1:  Iter=  8 NonCon=     1 RMS=9.18D-09 Max=6.07D-08
 LinEq1:  Iter=  9 NonCon=     1 RMS=6.79D-10 Max=4.97D-09
 LinEq1:  Iter= 10 NonCon=     0 RMS=5.97D-11 Max=3.81D-10
 Linear equations converged to 1.000D-10 1.000D-09 after    10 iterations.
 End of Minotr Frequency-dependent properties file   721 does not exist.
 End of Minotr Frequency-dependent properties file   722 does not exist.
 Leave Link 1002 at Mon Mar  7 13:01:32 2016, MaxMem=  131072000 cpu:       4.0
 (Enter /home/mdsoft/gaussian/g09/l701.exe)
 Compute integral first derivatives.
 ... and contract with generalized density number  2.
 Leave Link  701 at Mon Mar  7 13:01:32 2016, MaxMem=  131072000 cpu:       2.0
 (Enter /home/mdsoft/gaussian/g09/l702.exe)
 L702 exits ... SP integral derivatives will be done elsewhere.
 Leave Link  702 at Mon Mar  7 13:01:32 2016, MaxMem=  131072000 cpu:       0.1
 (Enter /home/mdsoft/gaussian/g09/l703.exe)
 Compute integral first derivatives, UseDBF=F ICtDFT=           0.
 Integral derivatives from FoFDir, PRISM(SPDF).
 Calling FoFJK, ICntrl=      2127 FMM=F ISym2X=1 I1Cent= 0 IOpClX= 0 NMat=1 NMatS=1 NMatT=0.
 FoFCou: FMM=F IPFlag=           0 FMFlag=      100000 FMFlg1=         800
         NFxFlg=           0 DoJE=F BraDBF=F KetDBF=F FulRan=T
         Omega=  0.000000  0.000000  1.000000  0.000000  0.000000 ICntrl=    2127 IOpCl=  0
         NMat0=    1 NMatS0=    1 NMatT0=    0 NMatD0=    1 NMtDS0=    0 NMtDT0=    0
         I1Cent=           0 NGrid=           0.
 Petite list used in FoFCou.
 Leave Link  703 at Mon Mar  7 13:01:33 2016, MaxMem=  131072000 cpu:       5.2
 (Enter /home/mdsoft/gaussian/g09/l716.exe)
 Dipole        =-4.66085966D-17 0.00000000D+00-8.76975434D-01
 ***** Axes restored to original set *****
 -------------------------------------------------------------------
 Center     Atomic                   Forces (Hartrees/Bohr)
 Number     Number              X              Y              Z
 -------------------------------------------------------------------
      1        8           0.000000000    0.000000000   -0.169013417
      2        1           0.076310388    0.000000000    0.084506709
      3        1          -0.076310388    0.000000000    0.084506709
 -------------------------------------------------------------------
 Cartesian Forces:  Max     0.169013417 RMS     0.077813776
 Leave Link  716 at Mon Mar  7 13:01:33 2016, MaxMem=  131072000 cpu:       0.2
 (Enter /home/mdsoft/gaussian/g09/l103.exe)

 GradGradGradGradGradGradGradGradGradGradGradGradGradGradGradGradGradGrad
 Berny optimization.
 Using GEDIIS/GDIIS optimizer.
 Internal  Forces:  Max     0.113804955 RMS     0.093057460
 Search for a local minimum.
 Step number   3 out of a maximum of   20
 All quantities printed in internal units (Hartrees-Bohrs-Radians)
 RMS Force = .93057D-01 SwitMx=.10000D-02 MixMth= 1
 Mixed Optimization -- RFO/linear search
 Update second derivatives using D2CorX and points    2    3
 The second derivative matrix:
                          R1        R2        A1
           R1           0.02652
           R2          -0.06544   0.02652
           A1          -0.05145  -0.05145  -0.12086
 ITU=  0  1  0
 Use linear search instead of GDIIS.
     Eigenvalues ---   -0.16340   0.00362   0.09196
 Eigenvalue     1 is  -1.63D-01 should be greater than     0.000000 Eigenvector:
                          A1        R2        R1
   1                    0.86331   0.35685   0.35685
 RFO step:  Lambda=-2.10700192D-01 EMin=-1.63397135D-01
 Skip linear search -- no minimum in search direction.
 Maximum step size (   0.505) exceeded in Quadratic search.
    -- Step size scaled by   0.419
 Iteration  1 RMS(Cart)=  0.25515427 RMS(Int)=  0.10941088
 Iteration  2 RMS(Cart)=  0.08476046 RMS(Int)=  0.00012044
 Iteration  3 RMS(Cart)=  0.00015320 RMS(Int)=  0.00000001
 Iteration  4 RMS(Cart)=  0.00000001 RMS(Int)=  0.00000000
 ClnCor:  largest displacement from symmetrization is 1.14D-14 for atom     3.
 Variable       Old X    -DE/DX   Delta X   Delta X   Delta X     New X
                                 (Linear)    (Quad)   (Total)
    R1        2.40843  -0.11380   0.00000  -0.32089  -0.32089   2.08754
    R2        2.40843  -0.11380   0.00000  -0.32089  -0.32089   2.08754
    A1        1.53252   0.00871   0.00000  -0.22050  -0.22050   1.31201
         Item               Value     Threshold  Converged?
 Maximum Force            0.113805     0.000450     NO 
 RMS     Force            0.093057     0.000300     NO 
 Maximum Displacement     0.396800     0.001800     NO 
 RMS     Displacement     0.326231     0.001200     NO 
 Predicted change in Energy=-8.534237D-02
 GradGradGradGradGradGradGradGradGradGradGradGradGradGradGradGradGradGrad

 Leave Link  103 at Mon Mar  7 13:01:33 2016, MaxMem=  131072000 cpu:       0.1
 (Enter /home/mdsoft/gaussian/g09/l202.exe)
                          Input orientation:                          
 ---------------------------------------------------------------------
 Center     Atomic      Atomic             Coordinates (Angstroms)
 Number     Number       Type             X           Y           Z
 ---------------------------------------------------------------------
      1          8           0        0.000000    0.000000    0.403038
      2          1           0       -0.673808    0.000000   -0.472350
      3          1           0        0.673808    0.000000   -0.472350
 ---------------------------------------------------------------------
                    Distance matrix (angstroms):
                    1          2          3
     1  O    0.000000
     2  H    1.104681   0.000000
     3  H    1.104681   1.347616   0.000000
 Stoichiometry    H2O
 Framework group  C2V[C2(O),SGV(H2)]
 Deg. of freedom     2
 Full point group                 C2V     NOp   4
 RotChk:  IX=0 Diff= 6.56D-16
 Largest Abelian subgroup         C2V     NOp   4
 Largest concise Abelian subgroup C2      NOp   2
                         Standard orientation:                         
 ---------------------------------------------------------------------
 Center     Atomic      Atomic             Coordinates (Angstroms)
 Number     Number       Type             X           Y           Z
 ---------------------------------------------------------------------
      1          8           0        0.000000    0.000000    0.175078
      2          1           0        0.000000    0.673808   -0.700310
      3          1           0        0.000000   -0.673808   -0.700310
 ---------------------------------------------------------------------
 Rotational constants (GHZ):    552.2427776    368.4228834    220.9910558
 Leave Link  202 at Mon Mar  7 13:01:33 2016, MaxMem=  131072000 cpu:       0.1
 (Enter /home/mdsoft/gaussian/g09/l301.exe)
 Standard basis: CC-pVTZ (5D, 7F)
 Ernie: Thresh=  0.10000D-02 Tol=  0.10000D-05 Strict=F.
 Ernie:  3 primitive shells out of 42 were deleted.
 There are    23 symmetry adapted basis functions of A1  symmetry.
 There are     7 symmetry adapted basis functions of A2  symmetry.
 There are    11 symmetry adapted basis functions of B1  symmetry.
 There are    17 symmetry adapted basis functions of B2  symmetry.
 Integral buffers will be    131072 words long.
 Raffenetti 1 integral format.
 Two-electron integral symmetry is turned on.
    58 basis functions,    86 primitive gaussians,    65 cartesian basis functions
     5 alpha electrons        5 beta electrons
       nuclear repulsion energy         8.0571825847 Hartrees.
 IExCor=    0 DFT=F Ex=HF Corr=None ExCW=0 ScaHFX=  1.000000
 ScaDFX=  1.000000  1.000000  1.000000  1.000000 ScalE2=  1.000000  1.000000
 IRadAn=      0 IRanWt=     -1 IRanGd=            0 ICorTp=0
 NAtoms=    3 NActive=    3 NUniq=    2 SFac= 2.25D+00 NAtFMM=   60 NAOKFM=F Big=F
 Leave Link  301 at Mon Mar  7 13:01:33 2016, MaxMem=  131072000 cpu:       0.4
 (Enter /home/mdsoft/gaussian/g09/l302.exe)
 NPDir=0 NMtPBC=     1 NCelOv=     1 NCel=       1 NClECP=     1 NCelD=      1
         NCelK=      1 NCelE2=     1 NClLst=     1 CellRange=     0.0.
 One-electron integrals computed using PRISM.
 One-electron integral symmetry used in STVInt
 NBasis=    58 RedAO= T  NBF=    23     7    11    17
 NBsUse=    58 1.00D-06 NBFU=    23     7    11    17
 Leave Link  302 at Mon Mar  7 13:01:33 2016, MaxMem=  131072000 cpu:       1.4
 (Enter /home/mdsoft/gaussian/g09/l303.exe)
 DipDrv:  MaxL=1.
 Leave Link  303 at Mon Mar  7 13:01:33 2016, MaxMem=  131072000 cpu:       0.2
 (Enter /home/mdsoft/gaussian/g09/l401.exe)
 Initial guess read from the read-write file.
 B after Tr=     0.000000    0.000000    0.000000
         Rot=    1.000000    0.000000    0.000000    0.000000 Ang=   0.00 deg.
 Guess basis will be translated and rotated to current coordinates.
 Initial guess orbital symmetries:
       Occupied  (A1) (A1) (B2) (A1) (B1)
       Virtual   (A1) (B2) (B2) (A1) (A1) (B1) (A1) (A2) (B2) (B1)
                 (B2) (A1) (B2) (A1) (A2) (B1) (A1) (A1) (B2) (A1)
                 (B2) (B1) (A1) (B2) (A2) (B1) (B2) (A2) (A1) (B2)
                 (A1) (A1) (B1) (A2) (B2) (B1) (A1) (B2) (A1) (B2)
                 (B1) (A1) (B2) (B1) (A2) (A1) (B2) (A2) (B1) (A1)
                 (A1) (B2) (A1)
 The electronic state of the initial guess is 1-A1.
 Generating alternative initial guess.
 Harris functional with IExCor=  205 diagonalized for initial guess.
 ExpMin= 1.03D-01 ExpMax= 1.53D+04 ExpMxC= 5.22D+02 IAcc=1 IRadAn=         1 AccDes= 0.00D+00
 HarFok:  IExCor=  205 AccDes= 0.00D+00 IRadAn=         1 IDoV= 1
 ScaDFX=  1.000000  1.000000  1.000000  1.000000
 FoFCou: FMM=F IPFlag=           0 FMFlag=      100000 FMFlg1=           0
         NFxFlg=           0 DoJE=T BraDBF=F KetDBF=T FulRan=T
         Omega=  0.000000  0.000000  1.000000  0.000000  0.000000 ICntrl=     500 IOpCl=  0
         NMat0=    1 NMatS0=    1 NMatT0=    0 NMatD0=    1 NMtDS0=    0 NMtDT0=    0
         I1Cent=           4 NGrid=           0.
 Petite list used in FoFCou.
 Harris En= -76.0993820202476    
 Leave Link  401 at Mon Mar  7 13:01:33 2016, MaxMem=  131072000 cpu:       2.1
 (Enter /home/mdsoft/gaussian/g09/l502.exe)
 Closed shell SCF:
 Requested convergence on RMS density matrix=1.00D-08 within 128 cycles.
 Requested convergence on MAX density matrix=1.00D-06.
 Requested convergence on             energy=1.00D-06.
 No special actions if energy rises.
 Using DIIS extrapolation, IDIIS=  1040.
 Integral symmetry usage will be decided dynamically.
 Keep R1 ints in memory in canonical form, NReq=4273800.
 IEnd=       32201 IEndB=       32201 NGot=   131072000 MDV=   128759117
 LenX=   128759117 LenY=   128754451
 Symmetry not used in FoFDir.
 MinBra= 0 MaxBra= 3 Meth= 1.
 IRaf=       0 NMat=   1 IRICut=       1 DoRegI=T DoRafI=F ISym2E= 0 JSym2E=0.

 Cycle   1  Pass 1  IDiag  1:
 E= -75.9890248239516    
 DIIS: error= 1.75D-02 at cycle   1 NSaved=   1.
 NSaved= 1 IEnMin= 1 EnMin= -75.9890248239516     IErMin= 1 ErrMin= 1.75D-02
 ErrMax= 1.75D-02 EMaxC= 1.00D-01 BMatC= 1.15D-02 BMatP= 1.15D-02
 IDIUse=3 WtCom= 8.25D-01 WtEn= 1.75D-01
 Coeff-Com:  0.100D+01
 Coeff-En:   0.100D+01
[...]
 (Enter /home/mdsoft/gaussian/g09/l716.exe)
 Dipole        = 5.28374533D-15 1.27512746D-14-7.59108188D-01
 Polarizability= 5.49896658D+00-8.17171489D-15 8.27510289D+00
                -6.24305878D-15-2.73112103D-13 7.17783941D+00
 -------------------------------------------------------------------
 Center     Atomic                   Forces (Hartrees/Bohr)
 Number     Number              X              Y              Z
 -------------------------------------------------------------------
      1        8           0.000000000    0.000000000   -0.000110812
      2        1           0.000000000    0.000013940    0.000055406
      3        1           0.000000000   -0.000013940    0.000055406
 -------------------------------------------------------------------
 Cartesian Forces:  Max     0.000110812 RMS     0.000045713
 Leave Link  716 at Mon Mar  7 13:02:35 2016, MaxMem=  131072000 cpu:       1.5
 (Enter /home/mdsoft/gaussian/g09/l106.exe)
 NDeriv=   3 NFrqRd=  0 LFDDif=       1
 NDeriv=   3 NFrqRd=  0 LFDDif=       1
 Re-enter D2Numr: IAtom=  0 IXYZ=3 IStep= 2.
 Max difference between analytic and numerical Dipole moment IMax=       3 EMax= 2.31D-06
 Max difference between analytic and numerical Dipole derivatives IMax=       5 EMax= 5.20D-05
 Max difference between off-diagonal Polarizability IMax=       2 JMax=       3 EMax= 1.14D-11
 Max difference between analytic and numerical Polarizability IMax=       1 EMax= 5.41D-05
 Max difference between off-diagonal HyperPolarizability IMax=       2 JMax=       2 KMax=       3 EMax= 1.63D-03
 Final packed hyperpolarizability:
 K=  1 block:
                1 
      1  0.000000D+00
 K=  2 block:
                1             2 
      1  0.000000D+00
      2  0.000000D+00  0.000000D+00
 K=  3 block:
                1             2             3 
      1 -0.536117D+01
      2  0.000000D+00 -0.146820D+02
      3  0.000000D+00  0.000000D+00 -0.119252D+02
 Max difference between off-diagonal Polar Derivs IMax=       2 JMax=       3 KMax=       9 EMax= 5.98D-05
 Leave Link  106 at Mon Mar  7 13:02:35 2016, MaxMem=  131072000 cpu:       0.7
 (Enter /home/mdsoft/gaussian/g09/l716.exe)
 Dipole        =-4.25841166D-17-3.45589442D-18-7.61500139D-01
 Polarizability= 5.49717754D+00 2.72252637D-16 8.27020006D+00
                 1.88900796D-16-2.17189728D-15 7.17385753D+00
 HyperPolar    = 0.00000000D+00 0.00000000D+00 0.00000000D+00
                 0.00000000D+00-5.36117377D+00-5.87878457D-11
                -1.46819820D+01-2.96939409D-13 3.76494233D-10
                -1.19251569D+01
 Full mass-weighted force constant matrix:
 Low frequencies ---   -5.1277   -0.0023   -0.0011   -0.0009    8.5700   11.3296
 Low frequencies --- 1652.0787 3855.3478 3975.6885
 Harmonic frequencies (cm**-1), IR intensities (KM/Mole), Raman scattering
 activities (A**4/AMU), depolarization ratios for plane and unpolarized
 incident light, reduced masses (AMU), force constants (mDyne/A),
 and normal coordinates:
                     1                      2                      3
                    A1                     A1                     B2
 Frequencies --  1652.0787              3855.3478              3975.6885
 Red. masses --     1.0826                 1.0452                 1.0809
 Frc consts  --     1.7409                 9.1536                10.0659
 IR Inten    --    64.5242                 5.7365                55.2077
 Raman Activ --     4.2735                68.4174                24.7817
 Depolar (P) --     0.5570                 0.1248                 0.7500
 Depolar (U) --     0.7155                 0.2218                 0.8571
  Atom  AN      X      Y      Z        X      Y      Z        X      Y      Z
     1   8     0.00   0.00   0.07     0.00   0.00   0.05     0.00   0.07   0.00
     2   1     0.00  -0.43  -0.56     0.00   0.58  -0.40     0.00  -0.55   0.44
     3   1     0.00   0.43  -0.56     0.00  -0.58  -0.40     0.00  -0.55  -0.44

 -------------------
 - Thermochemistry -
 -------------------
 Temperature   298.150 Kelvin.  Pressure   1.00000 Atm.
 Atom     1 has atomic number  8 and mass  15.99491
 Atom     2 has atomic number  1 and mass   1.00783
 Atom     3 has atomic number  1 and mass   1.00783
 Molecular mass:    18.01056 amu.
 Principal axes and moments of inertia in atomic units:
                           1         2         3
     Eigenvalues --     2.25260   4.08448   6.33708
           X            0.00000   0.00000   1.00000
           Y            1.00000   0.00000   0.00000
           Z            0.00000   1.00000   0.00000
 This molecule is an asymmetric top.
 Rotational symmetry number  2.
 Rotational temperatures (Kelvin)     38.45063    21.20558    13.66778
 Rotational constants (GHZ):         801.18202   441.85310   284.79063
 Zero-point vibrational energy      56721.6 (Joules/Mol)
                                   13.55679 (Kcal/Mol)
 Vibrational temperatures:   2376.97  5546.98  5720.12
          (Kelvin)
 
 Zero-point correction=                           0.021604 (Hartree/Particle)
 Thermal correction to Energy=                    0.024439
 Thermal correction to Enthalpy=                  0.025383
 Thermal correction to Gibbs Free Energy=         0.003965
 Sum of electronic and zero-point Energies=            -76.297054
 Sum of electronic and thermal Energies=               -76.294218
 Sum of electronic and thermal Enthalpies=             -76.293274
 Sum of electronic and thermal Free Energies=          -76.314693
 
                     E (Thermal)             CV                S
                      KCal/Mol        Cal/Mol-Kelvin    Cal/Mol-Kelvin
 Total                   15.336              6.005             45.080
 Electronic               0.000              0.000              0.000
 Translational            0.889              2.981             34.608
 Rotational               0.889              2.981             10.465
 Vibrational             13.558              0.044              0.006
                       Q            Log10(Q)             Ln(Q)
 Total Bot       0.150100D-01         -1.823619         -4.199038
 Total V=0       0.129888D+09          8.113567         18.682179
 Vib (Bot)       0.115601D-09         -9.937037        -22.880873
 Vib (V=0)       0.100034D+01          0.000150          0.000345
 Electronic      0.100000D+01          0.000000          0.000000
 Translational   0.300432D+07          6.477746         14.915562
 Rotational      0.432187D+02          1.635671          3.766273
 
                                                        H2O MP2/cc-pVTZ (Freq)
                                                             IR Spectrum
 
     3   3                                                                      1                                                    
     9   8                                                                      6                                                    
     7   5                                                                      5                                                    
     6   5                                                                      2                                                    
 
     X   X                                                                      X                                                    
     X   X                                                                      X                                                    
     X                                                                          X                                                    
     X                                                                          X                                                    
     X                                                                          X                                                    
     X                                                                          X                                                    
     X                                                                          X                                                    
     X                                                                          X                                                    
     X                                                                          X                                                    
     X                                                                          X                                                    
     X                                                                          X                                                    
     X                                                                          X                                                    
     X                                                                          X                                                    
     X                                                                          X                                                    
     X                                                                          X                                                    
     X                                                                          X                                                    
     X                                                                          X                                                    
                                                                                X                                                    
                                                                                X                                                    
                                                                                X                                                    
 
 
                                                        H2O MP2/cc-pVTZ (Freq)
                                                            Raman Spectrum
 
     3   3                                                                      1                                                    
     9   8                                                                      6                                                    
     7   5                                                                      5                                                    
     6   5                                                                      2                                                    
 
     X   X                                                                      X                                                    
     X   X                                                                                                                           
     X   X                                                                                                                           
     X   X                                                                                                                           
     X   X                                                                                                                           
     X   X                                                                                                                           
     X   X                                                                                                                           
         X                                                                                                                           
         X                                                                                                                           
         X                                                                                                                           
         X                                                                                                                           
         X                                                                                                                           
         X                                                                                                                           
         X                                                                                                                           
         X                                                                                                                           
         X                                                                                                                           
         X                                                                                                                           
         X                                                                                                                           
         X                                                                                                                           
         X                                                                                                                           
 
 ***** Axes restored to original set *****
 -------------------------------------------------------------------
 Center     Atomic                   Forces (Hartrees/Bohr)
 Number     Number              X              Y              Z
 -------------------------------------------------------------------
      1        8           0.000000000    0.000000000    0.000001999
      2        1           0.000006975    0.000000000   -0.000000999
      3        1          -0.000006975    0.000000000   -0.000000999
 -------------------------------------------------------------------
 Cartesian Forces:  Max     0.000006975 RMS     0.000003388
 Force constants in Cartesian coordinates: 
                1             2             3             4             5 
      1  0.690131D+00
      2  0.000000D+00 -0.178119D-05
      3  0.000000D+00  0.000000D+00  0.465477D+00
      4 -0.345066D+00  0.000000D+00 -0.206797D+00  0.376996D+00
      5  0.000000D+00  0.000000D+00  0.000000D+00  0.000000D+00  0.200252D-05
      6 -0.271925D+00  0.000000D+00 -0.232738D+00  0.239361D+00  0.000000D+00
      7 -0.345066D+00  0.000000D+00  0.206797D+00 -0.319300D-01  0.000000D+00
      8  0.000000D+00  0.000000D+00  0.000000D+00  0.000000D+00 -0.289311D-05
      9  0.271925D+00  0.000000D+00 -0.232738D+00 -0.325641D-01  0.000000D+00
                6             7             8             9 
      6  0.223515D+00
      7  0.325641D-01  0.376996D+00
      8  0.000000D+00  0.000000D+00  0.200252D-05
      9  0.922347D-02 -0.239361D+00  0.000000D+00  0.223515D+00
 Red2BG is reusing G-inverse.
 Force constants in internal coordinates: 
                1             2             3 
      1  0.550924D+00
      2 -0.843034D-02  0.550924D+00
      3  0.338052D-01  0.338052D-01  0.162871D+00
 Leave Link  716 at Mon Mar  7 13:02:35 2016, MaxMem=  131072000 cpu:       0.3
 (Enter /home/mdsoft/gaussian/g09/l103.exe)

 GradGradGradGradGradGradGradGradGradGradGradGradGradGradGradGradGradGrad
 Berny optimization.
 Red2BG is reusing G-inverse.
 Internal  Forces:  Max     0.000009247 RMS     0.000006652
 Search for a local minimum.
 Step number   1 out of a maximum of    2
 All quantities printed in internal units (Hartrees-Bohrs-Radians)
 Second derivative matrix not updated -- analytic derivatives used.
 The second derivative matrix:
                          R1        R2        A1
           R1           0.55092
           R2          -0.00843   0.55092
           A1           0.03381   0.03381   0.16287
 ITU=  0
     Eigenvalues ---    0.15694   0.54842   0.55935
 Angle between quadratic step and forces=  28.40 degrees.
 Linear search not attempted -- first point.
 Iteration  1 RMS(Cart)=  0.00003302 RMS(Int)=  0.00000000
 Iteration  2 RMS(Cart)=  0.00000000 RMS(Int)=  0.00000000
 ClnCor:  largest displacement from symmetrization is 4.58D-16 for atom     3.
 Variable       Old X    -DE/DX   Delta X   Delta X   Delta X     New X
                                 (Linear)    (Quad)   (Total)
    R1        1.81239   0.00000   0.00000  -0.00001  -0.00001   1.81239
    R2        1.81239   0.00000   0.00000  -0.00001  -0.00001   1.81239
    A1        1.80679  -0.00001   0.00000  -0.00005  -0.00005   1.80673
         Item               Value     Threshold  Converged?
 Maximum Force            0.000009     0.000450     YES
 RMS     Force            0.000007     0.000300     YES
 Maximum Displacement     0.000035     0.001800     YES
 RMS     Displacement     0.000033     0.001200     YES
 Predicted change in Energy=-2.788837D-10
 Optimization completed.
    -- Stationary point found.
                           ----------------------------
                           !   Optimized Parameters   !
                           ! (Angstroms and Degrees)  !
 --------------------------                            --------------------------
 ! Name  Definition              Value          Derivative Info.                !
 --------------------------------------------------------------------------------
 ! R1    R(1,2)                  0.9591         -DE/DX =    0.0                 !
 ! R2    R(1,3)                  0.9591         -DE/DX =    0.0                 !
 ! A1    A(2,1,3)              103.5212         -DE/DX =    0.0                 !
 --------------------------------------------------------------------------------
 GradGradGradGradGradGradGradGradGradGradGradGradGradGradGradGradGradGrad

 Leave Link  103 at Mon Mar  7 13:02:35 2016, MaxMem=  131072000 cpu:       0.3
 (Enter /home/mdsoft/gaussian/g09/l9999.exe)
 1\1\GINC-KUSHANA01\Freq\RMP2-FC\CC-pVTZ\H2O1\ROOT\07-Mar-2016\0\\#P Ge
 om=AllCheck Guess=TCheck SCRF=Check GenChk RMP2(FC)/CC-pVTZ Freq\\H2O 
 MP2/cc-pVTZ (Freq)\\0,1\O,0.,0.,0.2151924391\H,-0.7532897791,0.,-0.378
 4270259\H,0.7532897791,0.,-0.3784270259\\Version=EM64L-G09RevC.01\Stat
 e=1-A1\HF=-76.0569659\MP2=-76.3186576\RMSD=4.542e-10\RMSF=3.388e-06\Ze
 roPoint=0.0216041\Thermal=0.0244393\Dipole=0.,0.,-0.7615001\DipoleDeri
 v=-0.496913,0.,0.,0.,-0.678833,0.,0.,0.,-0.339314,0.2484565,0.,-0.0625
 044,0.,0.3394165,0.,-0.0716798,0.,0.169657,0.2484565,0.,0.0625044,0.,0
 .3394165,0.,0.0716798,0.,0.169657\Polar=8.2702001,0.,5.4971775,0.,0.,7
 .1738575\PolarDeriv=0.,0.,0.,3.8195297,0.,0.,0.,0.,0.,0.,1.4946495,0.,
 4.5360134,0.,0.4273367,0.,0.,5.383701,-4.3433117,0.,-0.1872455,-1.9097
 649,0.,-1.4647477,0.,-0.9739868,0.,0.,-0.7473247,0.,-2.2680067,0.,-0.2
 136683,-1.8900058,0.,-2.6918505,4.3433117,0.,0.1872455,-1.9097649,0.,1
 .4647477,0.,0.9739868,0.,0.,-0.7473247,0.,-2.2680067,0.,-0.2136683,1.8
 900058,0.,-2.6918505\HyperPolar=0.,0.,0.,0.,-14.681982,0.,-5.3611738,0
 .,0.,-11.9251569\DQPolar=0.,0.,0.,0.,-4.069257,0.,0.,0.,0.,0.,0.,-0.95
 90575,-2.2019208,2.5255196,-0.3235988,0.,0.,0.\Quadrupole=1.2075542,-1
 .0673717,-0.1401824,0.,0.,0.\PG=C02V [C2(O1),SGV(H2)]\NImag=0\\0.69013
 135,0.,-0.00000178,0.,0.,0.46547689,-0.34506568,0.,-0.20679669,0.37699
 567,0.,0.00000089,0.,0.,0.00000200,-0.27192488,0.,-0.23273844,0.239360
 78,0.,0.22351497,-0.34506568,0.,0.20679669,-0.03192999,0.,0.03256409,0
 .37699567,0.,0.00000089,0.,0.,-0.00000289,0.,0.,0.00000200,0.27192488,
 0.,-0.23273844,-0.03256409,0.,0.00922347,-0.23936078,0.,0.22351497\\0.
 ,0.,-0.00000200,-0.00000698,0.,0.00000100,0.00000698,0.,0.00000100\\\@


 LET US PLACE AT THE END OF EVERY CHAPTER.....THE
 TWO LETTERS USED BY THE ROMAN JUDGES WHEN THEY DID
 NOT UNDERSTAND A PLEADING.
 N. L. -NON LIQUET- IT IS NOT CLEAR.
                                              -- VOLTAIRE
 Job cpu time:  0 days  0 hours  5 minutes 52.0 seconds.
 File lengths (MBytes):  RWF=    112 Int=      0 D2E=      0 Chk=     39 Scr=      1
 Normal termination of Gaussian 09 at Mon Mar  7 13:02:36 2016.

real	1m17.224s
user	11m6.549s
sys	0m22.633s
