Jobname.Temp
FREQ      R                             aug-cc-pVTZ         
Number of atoms                            I                7
Charge                                     I               -1
Multiplicity                               I                1
Number of electrons                        I               50
Number of alpha electrons                  I               25
Number of beta electrons                   I               25
Atomic numbers                             I   N=           7
          15           8           1           8           1           8
           8
Current cartesian coordinates              R   N=          21
 -1.41532276E-05  8.90044585E-04  3.21982169E-01  1.88500251E+00  1.53801845E+00
 -1.68790888E+00  3.35557647E+00  4.89876163E-01 -1.89482628E+00 -1.88447270E+00
 -1.54690212E+00 -1.68052827E+00 -3.35772870E+00 -5.02746282E-01 -1.88843943E+00
  1.60300060E+00 -1.93891093E+00  1.62422931E+00 -1.60323484E+00  1.94773454E+00
  1.61339950E+00
Nuclear charges                            R   N=           7
  1.50000000E+01  8.00000000E+00  1.00000000E+00  8.00000000E+00  1.00000000E+00
  8.00000000E+00  8.00000000E+00
Number of basis functions                  I              280
Number of contracted shells                I               90
Number of primitive shells                 I              206
Highest angular momentum                   I                3
Largest degree of contraction              I               13
Shell types                                I   N=          90
           0           0           0           0           0           1
           1           1           1          -2          -2          -3
           0           1          -2          -3           0           0
           0           0           1           1           1          -2
          -2          -3           0           1          -2          -3
           0           0           0           1           1          -2
           0           1          -2           0           0           0
           0           1           1           1          -2          -2
          -3           0           1          -2          -3           0
           0           0           1           1          -2           0
           1          -2           0           0           0           0
           1           1           1          -2          -2          -3
           0           1          -2          -3           0           0
           0           0           1           1           1          -2
          -2          -3           0           1          -2          -3
Number of primitives per shell             I   N=          90
          13          13          13           1           1           7
           7           1           1           1           1           1
           1           1           1           1           8           8
           1           1           3           1           1           1
           1           1           1           1           1           1
           3           1           1           1           1           1
           1           1           1           8           8           1
           1           3           1           1           1           1
           1           1           1           1           1           3
           1           1           1           1           1           1
           1           1           8           8           1           1
           3           1           1           1           1           1
           1           1           1           1           8           8
           1           1           3           1           1           1
           1           1           1           1           1           1
Shell to atom map                          I   N=          90
           1           1           1           1           1           1
           1           1           1           1           1           1
           1           1           1           1           2           2
           2           2           2           2           2           2
           2           2           2           2           2           2
           3           3           3           3           3           3
           3           3           3           4           4           4
           4           4           4           4           4           4
           4           4           4           4           4           5
           5           5           5           5           5           5
           5           5           6           6           6           6
           6           6           6           6           6           6
           6           6           6           6           7           7
           7           7           7           7           7           7
           7           7           7           7           7           7
Primitive exponents                        R   N=         206
  3.12400000E+05  4.68000000E+04  1.06500000E+04  3.01800000E+03  9.86800000E+02
  3.57400000E+02  1.39600000E+02  5.76300000E+01  2.46000000E+01  1.01200000E+01
  4.28300000E+00  1.80500000E+00  2.78200000E-01  3.12400000E+05  4.68000000E+04
  1.06500000E+04  3.01800000E+03  9.86800000E+02  3.57400000E+02  1.39600000E+02
  5.76300000E+01  2.46000000E+01  1.01200000E+01  4.28300000E+00  1.80500000E+00
  2.78200000E-01  3.12400000E+05  4.68000000E+04  1.06500000E+04  3.01800000E+03
  9.86800000E+02  3.57400000E+02  1.39600000E+02  5.76300000E+01  2.46000000E+01
  1.01200000E+01  4.28300000E+00  1.80500000E+00  2.78200000E-01  6.15800000E-01
  1.05500000E-01  5.04900000E+02  1.19400000E+02  3.79600000E+01  1.39500000E+01
  5.45700000E+00  2.17700000E+00  2.87700000E-01  5.04900000E+02  1.19400000E+02
  3.79600000E+01  1.39500000E+01  5.45700000E+00  2.17700000E+00  2.87700000E-01
  8.01000000E-01  9.71400000E-02  2.16000000E-01  6.52000000E-01  4.52000000E-01
  4.09000000E-02  3.07000000E-02  7.75000000E-02  1.65000000E-01  1.53300000E+04
  2.29900000E+03  5.22400000E+02  1.47300000E+02  4.75500000E+01  1.67600000E+01
  6.20700000E+00  6.88200000E-01  1.53300000E+04  2.29900000E+03  5.22400000E+02
  1.47300000E+02  4.75500000E+01  1.67600000E+01  6.20700000E+00  6.88200000E-01
  1.75200000E+00  2.38400000E-01  3.44600000E+01  7.74900000E+00  2.28000000E+00
  7.15600000E-01  2.14000000E-01  2.31400000E+00  6.45000000E-01  1.42800000E+00
  7.37600000E-02  5.97400000E-02  2.14000000E-01  5.00000000E-01  3.38700000E+01
  5.09500000E+00  1.15900000E+00  3.25800000E-01  1.02700000E-01  1.40700000E+00
  3.88000000E-01  1.05700000E+00  2.52600000E-02  1.02000000E-01  2.47000000E-01
  1.53300000E+04  2.29900000E+03  5.22400000E+02  1.47300000E+02  4.75500000E+01
  1.67600000E+01  6.20700000E+00  6.88200000E-01  1.53300000E+04  2.29900000E+03
  5.22400000E+02  1.47300000E+02  4.75500000E+01  1.67600000E+01  6.20700000E+00
  6.88200000E-01  1.75200000E+00  2.38400000E-01  3.44600000E+01  7.74900000E+00
  2.28000000E+00  7.15600000E-01  2.14000000E-01  2.31400000E+00  6.45000000E-01
  1.42800000E+00  7.37600000E-02  5.97400000E-02  2.14000000E-01  5.00000000E-01
  3.38700000E+01  5.09500000E+00  1.15900000E+00  3.25800000E-01  1.02700000E-01
  1.40700000E+00  3.88000000E-01  1.05700000E+00  2.52600000E-02  1.02000000E-01
  2.47000000E-01  1.53300000E+04  2.29900000E+03  5.22400000E+02  1.47300000E+02
  4.75500000E+01  1.67600000E+01  6.20700000E+00  6.88200000E-01  1.53300000E+04
  2.29900000E+03  5.22400000E+02  1.47300000E+02  4.75500000E+01  1.67600000E+01
  6.20700000E+00  6.88200000E-01  1.75200000E+00  2.38400000E-01  3.44600000E+01
  7.74900000E+00  2.28000000E+00  7.15600000E-01  2.14000000E-01  2.31400000E+00
  6.45000000E-01  1.42800000E+00  7.37600000E-02  5.97400000E-02  2.14000000E-01
  5.00000000E-01  1.53300000E+04  2.29900000E+03  5.22400000E+02  1.47300000E+02
  4.75500000E+01  1.67600000E+01  6.20700000E+00  6.88200000E-01  1.53300000E+04
  2.29900000E+03  5.22400000E+02  1.47300000E+02  4.75500000E+01  1.67600000E+01
  6.20700000E+00  6.88200000E-01  1.75200000E+00  2.38400000E-01  3.44600000E+01
  7.74900000E+00  2.28000000E+00  7.15600000E-01  2.14000000E-01  2.31400000E+00
  6.45000000E-01  1.42800000E+00  7.37600000E-02  5.97400000E-02  2.14000000E-01
  5.00000000E-01
Contraction coefficients                   R   N=         206
  2.23431019E-04  1.73605158E-03  9.09814548E-03  3.78838647E-02  1.32235024E-01
  3.88045650E-01  9.07618808E-01  1.48099727E+00  1.23181375E+00  2.74094901E-01
 -7.04026896E-03  8.37169261E-03  1.67409455E-03 -6.34402589E-05 -4.92773362E-04
 -2.58957413E-03 -1.08261648E-02 -3.84518595E-02 -1.17136702E-01 -3.01646167E-01
 -6.06991656E-01 -7.67016287E-01  1.47062025E-01  2.14079753E+00  2.10152512E+00
 -3.74747656E-02  2.65908765E-05  2.06360234E-04  1.08606587E-03  4.53444927E-03
  1.61642490E-02  4.92662721E-02  1.28400112E-01  2.62089612E-01  3.47914040E-01
 -7.86418268E-02 -1.21332981E+00 -2.18315387E+00  4.32803594E+00  3.87298335E+00
  3.87298335E+00  9.42552632E-03  7.47701103E-02  3.42654870E-01  9.86456531E-01
  1.70488434E+00  1.48580037E+00 -1.52840978E-02 -3.69598387E-03 -2.96826441E-02
 -1.37358938E-01 -4.11174179E-01 -7.25063482E-01 -7.02930287E-01  3.84073164E+00
  3.87298335E+00  3.87298335E+00  2.23606798E+00  2.23606798E+00  1.00000000E+00
  3.87298335E+00  3.87298335E+00  2.23606798E+00  1.00000000E+00  2.01471938E-03
  1.55823473E-02  8.02833945E-02  3.14030502E-01  9.14900728E-01  1.71773864E+00
  1.38912522E+00 -3.23386256E-02 -7.63891788E-04 -5.94507088E-03 -3.07948029E-02
 -1.24374868E-01 -3.88342658E-01 -9.06460566E-01 -1.16735950E+00  4.00822657E+00
  3.87298335E+00  3.87298335E+00  1.59425510E-01  9.98311171E-01  3.10775649E+00
  3.87298335E+00  3.87298335E+00  2.23606798E+00  2.23606798E+00  1.00000000E+00
  3.87298335E+00  3.87298335E+00  2.23606798E+00  1.00000000E+00  9.87411807E-02
  7.37271822E-01  3.30040932E+00  3.87298335E+00  3.87298335E+00  3.87298335E+00
  3.87298335E+00  2.23606798E+00  3.87298335E+00  3.87298335E+00  2.23606798E+00
  2.01471938E-03  1.55823473E-02  8.02833945E-02  3.14030502E-01  9.14900728E-01
  1.71773864E+00  1.38912522E+00 -3.23386256E-02 -7.63891788E-04 -5.94507088E-03
 -3.07948029E-02 -1.24374868E-01 -3.88342658E-01 -9.06460566E-01 -1.16735950E+00
  4.00822657E+00  3.87298335E+00  3.87298335E+00  1.59425510E-01  9.98311171E-01
  3.10775649E+00  3.87298335E+00  3.87298335E+00  2.23606798E+00  2.23606798E+00
  1.00000000E+00  3.87298335E+00  3.87298335E+00  2.23606798E+00  1.00000000E+00
  9.87411807E-02  7.37271822E-01  3.30040932E+00  3.87298335E+00  3.87298335E+00
  3.87298335E+00  3.87298335E+00  2.23606798E+00  3.87298335E+00  3.87298335E+00
  2.23606798E+00  2.01471938E-03  1.55823473E-02  8.02833945E-02  3.14030502E-01
  9.14900728E-01  1.71773864E+00  1.38912522E+00 -3.23386256E-02 -7.63891788E-04
 -5.94507088E-03 -3.07948029E-02 -1.24374868E-01 -3.88342658E-01 -9.06460566E-01
 -1.16735950E+00  4.00822657E+00  3.87298335E+00  3.87298335E+00  1.59425510E-01
  9.98311171E-01  3.10775649E+00  3.87298335E+00  3.87298335E+00  2.23606798E+00
  2.23606798E+00  1.00000000E+00  3.87298335E+00  3.87298335E+00  2.23606798E+00
  1.00000000E+00  2.01471938E-03  1.55823473E-02  8.02833945E-02  3.14030502E-01
  9.14900728E-01  1.71773864E+00  1.38912522E+00 -3.23386256E-02 -7.63891788E-04
 -5.94507088E-03 -3.07948029E-02 -1.24374868E-01 -3.88342658E-01 -9.06460566E-01
 -1.16735950E+00  4.00822657E+00  3.87298335E+00  3.87298335E+00  1.59425510E-01
  9.98311171E-01  3.10775649E+00  3.87298335E+00  3.87298335E+00  2.23606798E+00
  2.23606798E+00  1.00000000E+00  3.87298335E+00  3.87298335E+00  2.23606798E+00
  1.00000000E+00
Coordinates of each shell                  R   N=         270
 -1.41532276E-05  8.90044585E-04  3.21982169E-01 -1.41532276E-05  8.90044585E-04
  3.21982169E-01 -1.41532276E-05  8.90044585E-04  3.21982169E-01 -1.41532276E-05
  8.90044585E-04  3.21982169E-01 -1.41532276E-05  8.90044585E-04  3.21982169E-01
 -1.41532276E-05  8.90044585E-04  3.21982169E-01 -1.41532276E-05  8.90044585E-04
  3.21982169E-01 -1.41532276E-05  8.90044585E-04  3.21982169E-01 -1.41532276E-05
  8.90044585E-04  3.21982169E-01 -1.41532276E-05  8.90044585E-04  3.21982169E-01
 -1.41532276E-05  8.90044585E-04  3.21982169E-01 -1.41532276E-05  8.90044585E-04
  3.21982169E-01 -1.41532276E-05  8.90044585E-04  3.21982169E-01 -1.41532276E-05
  8.90044585E-04  3.21982169E-01 -1.41532276E-05  8.90044585E-04  3.21982169E-01
 -1.41532276E-05  8.90044585E-04  3.21982169E-01  1.88500251E+00  1.53801845E+00
 -1.68790888E+00  1.88500251E+00  1.53801845E+00 -1.68790888E+00  1.88500251E+00
  1.53801845E+00 -1.68790888E+00  1.88500251E+00  1.53801845E+00 -1.68790888E+00
  1.88500251E+00  1.53801845E+00 -1.68790888E+00  1.88500251E+00  1.53801845E+00
 -1.68790888E+00  1.88500251E+00  1.53801845E+00 -1.68790888E+00  1.88500251E+00
  1.53801845E+00 -1.68790888E+00  1.88500251E+00  1.53801845E+00 -1.68790888E+00
  1.88500251E+00  1.53801845E+00 -1.68790888E+00  1.88500251E+00  1.53801845E+00
 -1.68790888E+00  1.88500251E+00  1.53801845E+00 -1.68790888E+00  1.88500251E+00
  1.53801845E+00 -1.68790888E+00  1.88500251E+00  1.53801845E+00 -1.68790888E+00
  3.35557647E+00  4.89876163E-01 -1.89482628E+00  3.35557647E+00  4.89876163E-01
 -1.89482628E+00  3.35557647E+00  4.89876163E-01 -1.89482628E+00  3.35557647E+00
  4.89876163E-01 -1.89482628E+00  3.35557647E+00  4.89876163E-01 -1.89482628E+00
  3.35557647E+00  4.89876163E-01 -1.89482628E+00  3.35557647E+00  4.89876163E-01
 -1.89482628E+00  3.35557647E+00  4.89876163E-01 -1.89482628E+00  3.35557647E+00
  4.89876163E-01 -1.89482628E+00 -1.88447270E+00 -1.54690212E+00 -1.68052827E+00
 -1.88447270E+00 -1.54690212E+00 -1.68052827E+00 -1.88447270E+00 -1.54690212E+00
 -1.68052827E+00 -1.88447270E+00 -1.54690212E+00 -1.68052827E+00 -1.88447270E+00
 -1.54690212E+00 -1.68052827E+00 -1.88447270E+00 -1.54690212E+00 -1.68052827E+00
 -1.88447270E+00 -1.54690212E+00 -1.68052827E+00 -1.88447270E+00 -1.54690212E+00
 -1.68052827E+00 -1.88447270E+00 -1.54690212E+00 -1.68052827E+00 -1.88447270E+00
 -1.54690212E+00 -1.68052827E+00 -1.88447270E+00 -1.54690212E+00 -1.68052827E+00
 -1.88447270E+00 -1.54690212E+00 -1.68052827E+00 -1.88447270E+00 -1.54690212E+00
 -1.68052827E+00 -1.88447270E+00 -1.54690212E+00 -1.68052827E+00 -3.35772870E+00
 -5.02746282E-01 -1.88843943E+00 -3.35772870E+00 -5.02746282E-01 -1.88843943E+00
 -3.35772870E+00 -5.02746282E-01 -1.88843943E+00 -3.35772870E+00 -5.02746282E-01
 -1.88843943E+00 -3.35772870E+00 -5.02746282E-01 -1.88843943E+00 -3.35772870E+00
 -5.02746282E-01 -1.88843943E+00 -3.35772870E+00 -5.02746282E-01 -1.88843943E+00
 -3.35772870E+00 -5.02746282E-01 -1.88843943E+00 -3.35772870E+00 -5.02746282E-01
 -1.88843943E+00  1.60300060E+00 -1.93891093E+00  1.62422931E+00  1.60300060E+00
 -1.93891093E+00  1.62422931E+00  1.60300060E+00 -1.93891093E+00  1.62422931E+00
  1.60300060E+00 -1.93891093E+00  1.62422931E+00  1.60300060E+00 -1.93891093E+00
  1.62422931E+00  1.60300060E+00 -1.93891093E+00  1.62422931E+00  1.60300060E+00
 -1.93891093E+00  1.62422931E+00  1.60300060E+00 -1.93891093E+00  1.62422931E+00
  1.60300060E+00 -1.93891093E+00  1.62422931E+00  1.60300060E+00 -1.93891093E+00
  1.62422931E+00  1.60300060E+00 -1.93891093E+00  1.62422931E+00  1.60300060E+00
 -1.93891093E+00  1.62422931E+00  1.60300060E+00 -1.93891093E+00  1.62422931E+00
  1.60300060E+00 -1.93891093E+00  1.62422931E+00 -1.60323484E+00  1.94773454E+00
  1.61339950E+00 -1.60323484E+00  1.94773454E+00  1.61339950E+00 -1.60323484E+00
  1.94773454E+00  1.61339950E+00 -1.60323484E+00  1.94773454E+00  1.61339950E+00
 -1.60323484E+00  1.94773454E+00  1.61339950E+00 -1.60323484E+00  1.94773454E+00
  1.61339950E+00 -1.60323484E+00  1.94773454E+00  1.61339950E+00 -1.60323484E+00
  1.94773454E+00  1.61339950E+00 -1.60323484E+00  1.94773454E+00  1.61339950E+00
 -1.60323484E+00  1.94773454E+00  1.61339950E+00 -1.60323484E+00  1.94773454E+00
  1.61339950E+00 -1.60323484E+00  1.94773454E+00  1.61339950E+00 -1.60323484E+00
  1.94773454E+00  1.61339950E+00 -1.60323484E+00  1.94773454E+00  1.61339950E+00
SCF Energy                                 R     -6.438144010091274E+02
Number of independent functions            I              280
Alpha MO coefficients                      R   N=       78400
  1.00232724E+00  1.43261044E-02  1.74578292E-02 -6.21329322E-03 -7.31258578E-03
 -3.45787300E-07 -3.93810777E-08 -1.99141012E-04 -7.10499808E-07  2.95400069E-07
 -3.19821650E-04  2.82881095E-07  5.01157025E-07  1.93958376E-04  6.23128428E-06
 -4.21024125E-07  4.92664791E-04 -1.29855792E-04  8.32700236E-08 -1.39670021E-06
 -1.51023984E-04 -3.27849676E-05 -8.51169138E-05  7.91502521E-07 -5.46898421E-07
 -4.36818191E-06 -3.36437821E-04 -1.25767213E-04  4.19773720E-06 -1.56632567E-06
 -1.75216502E-04 -9.59587225E-04  2.89846778E-06 -4.28583445E-07  1.43411653E-03
 -4.49051337E-07 -3.22694240E-07 -1.24336796E-04  4.54946662E-04 -2.07014969E-06
 -1.02824075E-06 -8.53786132E-04  6.47844597E-04  6.25368365E-04 -1.32924342E-05
  1.25549513E-05  1.00629894E-03  2.26145287E-03 -7.75867345E-06  1.75028615E-06
  1.45061213E-04  2.76301553E-04  6.58258009E-05  2.12990347E-04 -2.39998499E-05
 -3.18909614E-05  3.65488194E-05  1.83374064E-05  9.43015699E-05 -7.95003175E-05
  6.04489591E-04  6.39748574E-04 -1.00741882E-03  9.87637589E-06 -4.59043266E-05
 -3.83063681E-05  7.59154934E-06  2.85091332E-05 -4.72847873E-05  2.49454743E-04
  2.15040458E-04 -5.26204984E-05 -1.61758657E-04 -3.22310071E-05 -1.25270139E-05
 -1.51583174E-05  4.90378195E-06  5.68890304E-05 -6.10714410E-06 -1.01620922E-05
 -2.42259986E-03  2.97053026E-04  3.15723974E-04 -4.68910419E-04  3.38198660E-06
  9.85759535E-04  7.51698483E-04 -3.71456831E-04 -3.82459188E-04  1.74294424E-04
  1.49056383E-04  1.40283644E-04 -5.47628764E-05 -3.80606470E-04 -5.38975387E-05
  1.36781908E-04 -7.31239220E-06  3.93379649E-04  2.30135442E-03  2.24565540E-05
  2.15416875E-05 -7.14376773E-05 -1.38192466E-04  1.21185498E-04  2.13008518E-04
  5.09419597E-06 -2.36801843E-06  1.11162796E-05 -1.08376390E-05 -1.16423420E-05
 -1.71609264E-04 -4.44342802E-04  1.18431544E-07  4.94484715E-04  1.21339121E-04
 -1.29593054E-04 -1.95809993E-04 -4.19910914E-05  5.15759236E-05  1.45375732E-04
  2.76878110E-04  6.60073896E-05  1.98996976E-04  2.39073862E-05  3.22043409E-05
  3.63875448E-05 -1.74740056E-05 -9.55615301E-05 -7.89377960E-05 -5.87820602E-04
 -6.52326471E-04 -1.00150377E-03  9.51320766E-06  4.56968132E-05  3.84588468E-05
  7.44714295E-06  2.86689924E-05 -4.47059743E-05 -2.48357234E-04 -2.15739407E-04
 -5.21518536E-05 -1.61871404E-04 -3.23531557E-05  1.20826696E-05  1.48769113E-05
  4.58067270E-06  5.69445646E-05  5.61544153E-06  1.00940502E-05 -2.43243173E-03
 -2.94771052E-04 -3.20488614E-04 -4.67616580E-04  1.05812612E-05 -9.84966257E-04
 -7.53021951E-04 -3.65917909E-04 -3.82724389E-04  1.75626140E-04 -1.46672610E-04
 -1.38529932E-04 -5.22378301E-05 -3.81204456E-04  5.67726438E-05 -1.37134621E-04
 -7.80850917E-06  4.13377228E-04  2.31696710E-03 -2.20715695E-05 -2.23143268E-05
 -7.11330525E-05  1.42794033E-04 -1.21936772E-04  2.13497267E-04  4.81923124E-06
  2.64478375E-06 -1.13327380E-05 -1.07065070E-05 -1.18550282E-05 -1.71154102E-04
  4.47426095E-04  2.94910172E-06  4.93798260E-04  1.21055559E-04  1.29215560E-04
  1.98880281E-04 -4.38400696E-05  5.17517597E-05  1.16321046E-04  2.25304964E-04
  9.07811112E-05  2.62755599E-04 -5.36625323E-05  4.77720791E-05 -1.69235436E-05
  2.33819129E-04 -2.10008874E-04  8.04040971E-05  1.22410427E-03 -1.89134996E-03
  1.56427753E-03 -2.46314467E-05  3.72167763E-05 -3.05228032E-05 -1.06169791E-05
 -4.83338941E-05  1.67936939E-04 -2.57578181E-04  2.51177119E-04  7.25514265E-05
  3.72647595E-04 -9.97562033E-06  1.71580907E-06  2.80963788E-06  7.69384743E-06
  4.68039995E-05  1.80460838E-05  9.10213762E-06 -7.95951759E-04  4.49129004E-04
 -1.96607461E-04  6.34175542E-05 -2.24523725E-05 -5.75423032E-04  8.10530184E-04
  3.30195917E-04  1.01807027E-03 -1.16977337E-04 -1.12300295E-05  1.30136592E-05
 -6.26159467E-05 -3.33325919E-04 -2.07181140E-04 -9.98159243E-05  1.16054549E-04
  2.24847300E-04  9.08685670E-05  2.66020572E-04  5.36734317E-05 -4.78046678E-05
 -1.67148149E-05 -2.33823845E-04  2.10163062E-04  7.95425681E-05 -1.22734966E-03
  1.90219698E-03  1.54682841E-03 -2.49388303E-05 -3.69571617E-05  3.01880203E-05
 -1.08149616E-05 -4.86061071E-05  1.70433458E-04  2.55553521E-04 -2.48984536E-04
  7.40155718E-05  3.74342916E-04 -9.92719497E-06 -2.07600564E-06 -2.87401537E-06
  7.79130357E-06  4.66257314E-05 -1.83894056E-05 -9.07101214E-06 -7.92174476E-04
 -4.48384807E-04  1.96876046E-04  6.15006381E-05 -1.32660692E-05  5.68990692E-04
 -8.07928335E-04  3.34855376E-04  1.02227183E-03 -1.16766843E-04  1.40731378E-05
 -1.52234716E-05 -6.32699107E-05 -3.31704893E-04  2.09553800E-04  9.94166460E-05
  3.81205938E-05  2.41713441E-04  3.17616690E-04 -1.92697292E-04  8.46268512E-04
  1.18152645E-03  1.11119062E-03 -1.99946282E-04  2.70254770E-03  2.56922966E-03
 -4.60399013E-04 -5.06723759E-04 -3.63016168E-04  7.24288957E-05  2.93347965E-03
  6.00922169E-04 -3.99755767E-04  1.41787130E-04 -4.37984535E-03 -2.70962394E-03
  1.58805622E-04  3.71093914E-04  1.15002131E-05 -3.17394257E-04 -3.58169508E-04
 -1.01587585E-05  4.87023229E-05  4.40899612E-05  3.99810627E-04  5.57986846E-04
 -3.16265403E-05 -1.15805520E-04 -3.79396307E-04  5.20712665E-04  5.20610741E-04
  2.26303024E-04 -2.11145180E-05 -6.17133440E-05 -4.63912155E-05 -7.69830773E-04
 -7.06357061E-04  2.03200666E-04 -4.51620032E-05  6.35175376E-05  8.60509473E-04
  4.80138204E-04 -1.74979766E-04 -2.05671582E-05 -7.94046898E-04  1.69185228E-03
  7.76281083E-01 -1.65317403E-03  4.10379199E-02 -1.68741560E-03  2.38505652E-04
 -9.46347003E-04  3.87101413E-04  1.02959916E-03  8.18531150E-05 -5.70596263E-04
  1.87368263E-03  2.07810757E-03 -2.06852695E-03 -1.39214711E-04 -1.77514250E-04
 -4.68186884E-05  1.22927140E-04 -1.61473627E-04  1.18484552E-05  5.57948916E-04
  3.05412761E-04 -2.15355545E-04 -3.22372211E-04  2.47849311E-05 -1.02615842E-04
  6.24374026E-05 -1.20657692E-06  6.40641848E-05 -5.55948761E-05 -1.33287549E-04
 -3.64313888E-03  1.01235206E-03  6.19418717E-04 -5.81803727E-04  1.20157479E-05
  6.69657437E-04  5.37297096E-04 -7.18691641E-05 -3.55086846E-04  3.64119290E-06
  3.52678303E-04 -5.71410087E-05 -2.65288505E-05 -4.58995088E-04  2.05681465E-05
  4.70558896E-04  6.55935361E-04 -8.95144693E-04 -2.39181677E-03  1.06899662E-04
 -7.21680022E-05 -5.60818981E-05  1.15868393E-03 -6.10448767E-04 -2.65334585E-04
  4.09188999E-04  1.79797338E-04 -1.14807663E-04 -2.93405630E-04  6.89415094E-04
 -5.15748586E-04  9.41519042E-04 -4.09000046E-04 -3.79784696E-04  1.32671774E-04
  1.90729514E-04 -6.30405712E-05 -1.68783747E-04  3.15932913E-05 -5.84371925E-01
  1.27230778E-03 -3.09054098E-02  1.60818682E-03  1.71561960E-04 -7.17236911E-04
 -2.91889735E-04  8.16990336E-04  8.81808809E-05  4.47424826E-04  1.60125723E-03
  1.57900355E-03  1.53663529E-03  1.06988952E-04 -1.35389122E-04 -3.42631885E-05
 -9.42086305E-05  1.21805097E-04 -2.57182933E-05  4.27301991E-04  2.26116281E-04
  1.68407635E-04  2.51507548E-04 -1.41518884E-05 -8.00767421E-05  4.47797035E-05
 -1.31518927E-06 -5.36758030E-05 -4.47846454E-05 -8.88629689E-05  3.17803553E-03
  8.95495641E-04  5.81297461E-04  4.87187925E-04 -4.14658454E-05  5.64276247E-04
  3.95712825E-04  9.02979728E-05  3.02557876E-04 -2.41330223E-05  2.61898905E-04
 -4.81627961E-05  3.42237917E-05  3.68349954E-04  3.11525886E-05  3.24904912E-04
 -4.90285189E-04  6.88746965E-04  1.43087831E-03  7.28499973E-05 -5.83840436E-05
  4.75976855E-05  8.81892451E-04 -4.75000999E-04  1.98251361E-04 -3.06319482E-04
  1.39107663E-04 -8.16365059E-05  2.21316022E-04 -5.19726867E-04  4.01467840E-04
  6.61791139E-04 -3.77931746E-04  2.15495520E-04 -1.15733003E-04  1.48746265E-04
 -9.06585651E-05  1.56074695E-04 -1.50977274E-05 -3.60735200E-05 -4.37367518E-05
  6.09238068E-06  3.91609950E-04  4.08993790E-06 -3.98727191E-06 -7.61981226E-06
 -3.29570849E-05 -1.24685958E-05  3.32876482E-05  1.40773706E-03  1.55841978E-03
 -1.09105605E-04  8.92597585E-06  8.40048282E-06 -3.24046965E-06  2.26838852E-05
 -1.47073916E-06 -4.73361935E-05 -7.96882548E-05  1.07681994E-06 -1.49158529E-04
  1.73337431E-05 -6.12260948E-06  1.46834869E-05  1.59521976E-05  2.95273546E-05
 -1.00907400E-05  5.06181335E-08 -1.10158722E-05 -6.97713833E-04  3.15804164E-04
  1.75198395E-04  1.32188375E-04 -1.06866368E-04 -3.34909577E-04 -4.02489100E-04
 -6.07457382E-04 -2.21102880E-05  2.28748468E-05  8.72733630E-06 -6.63925305E-05
  1.75228002E-05 -3.52291016E-06  4.42564603E-05 -3.06978211E-05  2.27504550E-05
  4.04610194E-05 -1.25652450E-05 -1.17470597E-04 -5.65166648E-07 -2.22705486E-06
  1.18156188E-05 -1.67094346E-05 -1.24977948E-05 -4.32042875E-05  1.37189456E-03
  1.45433883E-03 -1.20561155E-04 -1.11156072E-05  1.03139308E-05 -2.58820942E-06
 -2.31803342E-05  2.26540648E-06  6.28918556E-05 -9.09336360E-05  6.96247643E-07
  1.55086142E-04 -1.30690757E-05  1.01387237E-05  1.57458800E-05  1.08411723E-05
 -2.99387234E-05  5.70941248E-06  2.78100599E-06 -1.08067781E-05  6.75766483E-04
  4.26881736E-04  1.94343387E-04 -1.40482164E-04  1.71138685E-04 -4.01089839E-04
 -3.46351902E-04  5.43512016E-04  5.69752349E-05 -3.84010880E-05  1.81924955E-05
 -5.91553772E-05 -1.49235910E-05  2.23298107E-05  4.12718663E-05 -2.24444480E-05
  2.70358772E-04  1.71357868E-03  2.25050789E-03 -1.37207551E-03  6.00538611E-03
 -1.65745269E-04 -1.60569584E-04 -1.39767336E-03 -3.79036195E-04 -3.71153325E-04
 -3.21804547E-03  7.13802915E-05  5.26841856E-05  5.06399824E-04 -4.16862646E-04
 -9.05577646E-05 -2.75314391E-03  9.16962437E-04  6.10902443E-04  3.87600218E-04
  1.06934535E-03  2.71180602E-03  7.23048157E-05  4.37161495E-05  5.06241008E-05
 -7.88503404E-05  3.49345350E-04  3.36355164E-04 -5.31356054E-05 -7.74584598E-05
 -1.93747547E-04 -8.28494231E-04  5.59125564E-05 -7.37045247E-05  3.73955329E-03
 -3.18893646E-05  1.16648511E-06 -4.43113312E-04 -3.67383629E-04  1.10441369E-04
  1.00441159E-04  1.40944069E-03 -3.23894089E-04  4.68566513E-04 -1.20780229E-04
 -6.89891631E-05 -1.16655804E-03 -1.62949058E-04  1.11163368E-04 -2.42334109E-04
  5.84449614E-01 -1.14470925E-03  3.08510850E-02 -5.89305960E-05  2.12859423E-04
 -6.96769509E-04  2.82660464E-04  6.23440760E-04 -2.02365941E-05 -3.59719697E-04
  7.08196171E-04  1.53730207E-03 -1.61289807E-03 -9.85157823E-05 -1.26786653E-04
 -3.95472019E-05  8.87584569E-05 -1.17524933E-04 -4.36191898E-05  3.87823743E-04
  2.47257271E-04 -1.35109113E-04 -2.17532702E-04  3.51792260E-05 -6.66871743E-05
  5.41256254E-05 -9.37076763E-06  2.91994957E-05 -2.75003990E-05 -1.42772139E-04
 -1.17996549E-03  2.87345461E-04  5.77083295E-05 -2.49506571E-04 -9.20212652E-05
  2.80615545E-04  4.41621955E-04  7.46327643E-05 -1.45834474E-04 -7.22519707E-05
  2.73167693E-04 -2.46044405E-05  3.64755542E-05 -2.64311179E-04 -5.55480194E-05
  4.62978003E-04  5.04442063E-04 -5.99191350E-04 -3.09716354E-03  1.08536239E-04
 -3.73897703E-05 -2.31370781E-05  8.36249896E-04 -3.93113221E-04 -1.99210288E-04
  3.13670407E-04  1.23617980E-04 -1.02479361E-04 -2.28695570E-04  5.11132234E-04
 -3.44299730E-04  8.64960475E-04 -5.03840054E-05 -5.33410038E-04  3.87703160E-05
  1.20110173E-04  1.08915636E-04 -2.63692022E-05  5.58967526E-05  7.76339486E-01
 -1.55733087E-03  4.09969932E-02 -5.21888906E-04 -2.72153369E-04  9.31692257E-04
  3.76114203E-04 -8.84170549E-04 -6.43144897E-06 -5.01829314E-04 -1.19537280E-03
 -2.06527384E-03 -2.11169189E-03 -1.33930307E-04  1.70716811E-04  5.12374508E-05
  1.20137459E-04 -1.56495962E-04 -3.53252359E-05 -5.24929221E-04 -3.23506728E-04
 -1.87865606E-04 -3.00863435E-04  4.07743181E-05  9.23924196E-05 -6.88366115E-05
 -9.78421349E-06  4.58858260E-05  4.05741689E-05  1.74432110E-04 -2.12746916E-03
 -5.53983173E-04 -2.25893978E-04 -3.98373305E-04 -7.98424072E-05 -4.51018809E-04
 -5.75465213E-04  5.59378420E-05 -2.40170384E-04 -6.71337670E-05 -3.57877702E-04
  3.89637404E-05  3.09068042E-05 -3.81283999E-04  5.25342480E-05 -5.75443715E-04
  6.66093545E-04 -8.20787590E-04 -3.64805255E-03 -1.33938689E-04  5.54733974E-05
 -3.77133273E-05 -1.12492287E-03  5.43686427E-04 -2.64326786E-04  4.14447816E-04
 -1.69304103E-04  1.30180705E-04 -3.04647435E-04  6.80092944E-04 -4.72892409E-04
 -1.09570176E-03  1.55787629E-04 -6.15704284E-04  7.51894603E-05 -1.68090897E-04
 -8.77845295E-05 -7.15837511E-05  6.07669604E-05 -4.49503717E-05 -8.96754191E-06
 -2.33681792E-05  9.21901508E-04  1.57345251E-05 -5.39799969E-06  1.58374681E-05
 -5.11787206E-05 -5.91459297E-07 -3.83435251E-05 -7.45968749E-05  1.46817154E-04
 -7.92466242E-04 -9.34153084E-06 -7.97293521E-06 -2.59725274E-06 -5.12947513E-06
  2.79737200E-06  6.34878975E-05  5.07278935E-05  6.65979625E-06  4.28158172E-05
  1.59233967E-05  1.58285132E-05 -6.01571009E-06  1.56910032E-05 -5.58178354E-06
 -1.52719237E-05 -9.97049816E-06 -5.45211857E-08 -3.19921678E-05 -4.43463683E-04
 -9.83822537E-05 -3.69227065E-05  2.38705583E-04  2.88969697E-04 -1.33543084E-04
 -1.48806528E-04  1.33624990E-04 -6.25371418E-05 -3.64251535E-05 -1.81178785E-05
  4.70790917E-06  6.76002876E-05  3.61567475E-06 -2.53539322E-05 -5.31773792E-05
 -2.07042839E-05 -2.08194390E-05  9.96260339E-04 -1.62994741E-05  6.35053938E-06
  1.31021939E-05  5.85376349E-05  3.89839780E-06 -2.77527614E-05 -3.15404265E-04
 -5.76660872E-04 -7.89860759E-04 -6.54952113E-06  5.33111829E-06  3.33152137E-06
  1.31795247E-06  2.31615841E-06  4.80480736E-05 -2.69593911E-05 -6.23729350E-06
  7.59992394E-08  1.98547342E-05  1.37173316E-05  1.89608574E-06 -1.93008425E-05
  2.88705737E-06 -1.73475772E-05  9.72381490E-06  3.10800307E-06 -2.23983477E-04
  3.39686532E-04  4.65760560E-05  1.85820045E-06  1.97330872E-04 -1.86302968E-04
  2.40297884E-04 -3.12066625E-04  1.20719875E-04 -5.40376000E-05  3.20368303E-05
  3.51109683E-05  8.93980698E-06  6.41018168E-05 -1.62273541E-05  3.28334966E-05